LAMMPS FENE chain data file

        2010  atoms
           9  bonds
           0  angles
           0  dihedrals
           0  impropers

           2  atom types
           2  bond types
           0  angle types
           0  dihedral types
           0  improper types

      -7.375942       7.375942 xlo xhi
      -7.375942       7.375942 ylo yhi
      -7.375942       7.375942 zlo zhi

Masses

  1  1.0
  2  1.0

Atoms

         1       1       1   -1.7500    3.0223    5.7790   0   0   0
         2       1       1   -1.5691    2.1939    6.2500   0   0   0
         3       1       1   -2.0179    1.4717    5.7831   0   0   0
         4       1       1   -1.4693    1.3420    4.9937   0   0   0
         5       1       1   -1.5661    0.4805    5.4289   0   0   0
         6       1       1   -1.0225   -0.0844    4.8577   0   0   0
         7       1       1   -0.2273    0.3765    4.5477   0   0   0
         8       1       1    0.4509   -0.1952    4.1552   0   0   0
         9       1       1    1.4154   -0.1125    4.2172   0   0   0
        10       1       1    1.4590   -0.6355    5.0329   0   0   0
        11       2       2    6.0540    6.3164    5.8073   0   0   0
        12       3       2    5.6643    5.7737    0.3545   0   0   0
        13       4       2   -1.6053    0.1531    6.4233   0   0   0
        14       5       2    1.8171    3.3836    0.0820   0   0   0
        15       6       2    5.8003    4.4489   -3.8485   0   0   0
        16       7       2    5.0236    5.8438   -1.6065   0   0   0
        17       8       2   -5.0718   -6.1445    7.2267   0   0   0
        18       9       2    6.7223   -2.6076    1.5362   0   0   0
        19      10       2    3.2260    6.7272    5.3510   0   0   0
        20      11       2    6.1817   -1.3257   -6.4798   0   0   0
        21      12       2    7.0898   -7.1964    0.6261   0   0   0
        22      13       2    4.8457   -2.9893    3.0864   0   0   0
        23      14       2    6.3343   -4.1716    3.5164   0   0   0
        24      15       2    4.6392   -7.0630   -0.2308   0   0   0
        25      16       2    1.4940    1.2242   -3.9034   0   0   0
        26      17       2   -2.1651    3.7840    1.8000   0   0   0
        27      18       2   -2.7404   -1.8622    4.9484   0   0   0
        28      19       2   -3.1884    6.9621    0.9052   0   0   0
        29      20       2    3.8978   -3.1654   -5.2303   0   0   0
        30      21       2    1.0570    3.4030    1.7815   0   0   0
        31      22       2   -4.9083   -1.0522    2.6022   0   0   0
        32      23       2   -4.3325   -0.9187    4.0490   0   0   0
        33      24       2    0.7757   -2.7093    3.6397   0   0   0
        34      25       2   -3.2289    3.6626   -2.7792   0   0   0
        35      26       2   -4.8893   -5.8710    1.3283   0   0   0
        36      27       2    5.4304   -1.3888   -4.9042   0   0   0
        37      28       2   -5.9535    2.2832    4.4099   0   0   0
        38      29       2    4.3887    1.6759    5.5576   0   0   0
        39      30       2   -1.7101   -4.8980   -4.9019   0   0   0
        40      31       2    2.6128   -2.6605   -1.9960   0   0   0
        41      32       2   -0.4728    5.6171   -5.3738   0   0   0
        42      33       2   -7.1257   -6.5453   -1.4389   0   0   0
        43      34       2   -5.6543   -0.8086   -3.2827   0   0   0
        44      35       2   -0.3824    4.3107    3.4762   0   0   0
        45      36       2    6.6061    5.4237    4.8014   0   0   0
        46      37       2    3.5940   -4.3501   -2.1368   0   0   0
        47      38       2    6.9123    3.2065    2.3120   0   0   0
        48      39       2    0.8377    6.5435    1.5408   0   0   0
        49      40       2    6.5501   -6.1804   -6.7072   0   0   0
        50      41       2    5.7558   -4.6386    2.8650   0   0   0
        51      42       2    2.1823    4.3140    0.6325   0   0   0
        52      43       2   -6.1470   -5.2530    2.7431   0   0   0
        53      44       2    3.8278    0.4251    4.0308   0   0   0
        54      45       2    5.2585    1.5568   -3.9495   0   0   0
        55      46       2    3.6055   -3.3817    2.4879   0   0   0
        56      47       2    6.8161   -5.3852   -6.4793   0   0   0
        57      48       2    0.9124   -6.4817    4.9937   0   0   0
        58      49       2    5.2587    5.2302   -1.9166   0   0   0
        59      50       2    5.0001   -5.2811    3.3021   0   0   0
        60      51       2    1.2757    6.6900   -0.0077   0   0   0
        61      52       2    3.4755   -4.6544    3.3061   0   0   0
        62      53       2   -5.4997    2.6401   -2.1993   0   0   0
        63      54       2    4.8355    1.6678    2.7113   0   0   0
        64      55       2    0.2902   -6.0592   -4.1460   0   0   0
        65      56       2    5.7067   -3.9553   -4.5147   0   0   0
        66      57       2    4.7965   -4.8546    2.1218   0   0   0
        67      58       2    5.5278   -2.1732    0.5212   0   0   0
        68      59       2   -2.9384    3.9406   -6.2846   0   0   0
        69      60       2   -2.1575   -1.3231   -5.7344   0   0   0
        70      61       2   -3.6361    4.9011   -2.1204   0   0   0
        71      62       2    3.1158   -2.4611    1.0556   0   0   0
        72      63       2   -5.8525    2.2585    1.4247   0   0   0
        73      64       2    3.2489   -6.5344    4.9139   0   0   0
        74      65       2    7.0842    2.1427    2.3302   0   0   0
        75      66       2   -3.3109   -2.5855    5.0261   0   0   0
        76      67       2    4.6352   -1.6678   -2.1217   0   0   0
        77      68       2   -3.7792    4.2355   -5.7934   0   0   0
        78      69       2    6.7185    7.2680   -6.4481   0   0   0
        79      70       2   -5.3554    7.3144    4.9093   0   0   0
        80      71       2    2.5136   -2.8511   -4.3563   0   0   0
        81      72       2   -3.5559   -3.5191   -5.8283   0   0   0
        82      73       2   -4.3347    5.9646    7.2646   0   0   0
        83      74       2   -5.7563   -3.4130    7.2576   0   0   0
        84      75       2   -4.5362   -1.3865    4.4662   0   0   0
        85      76       2    6.2253   -7.2048    6.8974   0   0   0
        86      77       2    4.2556    6.2447   -4.7888   0   0   0
        87      78       2    0.9613    2.9827    3.5894   0   0   0
        88      79       2    5.8215    6.8959   -6.7201   0   0   0
        89      80       2   -4.8070    5.0302   -1.0560   0   0   0
        90      81       2   -1.7145   -5.9422    0.2861   0   0   0
        91      82       2   -0.9911   -2.7634   -5.2531   0   0   0
        92      83       2    1.7929   -4.3742    5.8567   0   0   0
        93      84       2   -6.1566   -4.6896    1.0538   0   0   0
        94      85       2   -6.5634    2.7702    2.3801   0   0   0
        95      86       2   -5.2205    3.5397   -2.3868   0   0   0
        96      87       2   -4.1898   -6.8835   -6.3232   0   0   0
        97      88       2   -1.3879   -2.9939   -0.0225   0   0   0
        98      89       2    5.2999    3.3535   -3.9470   0   0   0
        99      90       2    1.2453   -2.8219   -0.5731   0   0   0
       100      91       2    0.6781   -5.7273   -2.7521   0   0   0
       101      92       2    6.9489   -0.7010    5.6112   0   0   0
       102      93       2   -1.3206    6.4601    1.8428   0   0   0
       103      94       2   -6.6259    0.9701    3.2687   0   0   0
       104      95       2    1.5274    1.8963    7.2903   0   0   0
       105      96       2   -0.6388    2.8783    4.1610   0   0   0
       106      97       2   -5.1818    3.7793   -2.1418   0   0   0
       107      98       2   -2.5002    6.5953    1.8802   0   0   0
       108      99       2    2.5219    2.7715   -5.0409   0   0   0
       109     100       2   -1.7872   -1.9188   -2.2284   0   0   0
       110     101       2    1.5561   -2.1102   -3.0226   0   0   0
       111     102       2    5.3153   -2.6466   -4.2975   0   0   0
       112     103       2   -2.9263   -0.0470    6.9952   0   0   0
       113     104       2   -4.5436    6.1315   -4.1729   0   0   0
       114     105       2   -3.1176    0.6466   -4.0574   0   0   0
       115     106       2    5.6916    7.2995    5.8575   0   0   0
       116     107       2    6.9770    0.3875    6.8754   0   0   0
       117     108       2    3.2179    2.8090    4.4477   0   0   0
       118     109       2    4.4332   -2.1605   -6.4990   0   0   0
       119     110       2   -6.2585   -6.2074   -2.6612   0   0   0
       120     111       2    0.4543   -5.6555   -5.4037   0   0   0
       121     112       2    6.8473    2.4756    6.7122   0   0   0
       122     113       2    4.4049   -6.1792   -1.2813   0   0   0
       123     114       2    3.6793   -2.5415    7.0480   0   0   0
       124     115       2   -1.7995   -3.1062    0.4492   0   0   0
       125     116       2   -3.3948    4.0827    6.8356   0   0   0
       126     117       2   -1.2161    6.3162    1.2802   0   0   0
       127     118       2   -7.0186   -5.9673    6.4179   0   0   0
       128     119       2    0.3284    2.6961   -4.1021   0   0   0
       129     120       2    7.0794   -5.0348   -2.5414   0   0   0
       130     121       2   -7.2325   -0.7847   -1.0922   0   0   0
       131     122       2   -4.4412    0.8631    4.2355   0   0   0
       132     123       2   -6.6894   -4.0981   -0.0681   0   0   0
       133     124       2    6.4595    5.3579    5.4957   0   0   0
       134     125       2    3.9324    2.6582    6.8835   0   0   0
       135     126       2    7.1963   -3.2036    1.3335   0   0   0
       136     127       2    4.6295    6.2929   -6.7558   0   0   0
       137     128       2    0.2795    7.2368    0.4531   0   0   0
       138     129       2    2.7517   -0.0481    3.1694   0   0   0
       139     130       2   -0.7891   -0.5421    4.7855   0   0   0
       140     131       2    3.1346    4.7377   -3.3079   0   0   0
       141     132       2    3.8979   -1.3254   -0.5432   0   0   0
       142     133       2    2.2669   -3.8674   -2.4750   0   0   0
       143     134       2    3.2429   -4.7395    3.5905   0   0   0
       144     135       2   -5.1170    2.0417    2.1697   0   0   0
       145     136       2   -0.1282   -1.3120    3.2816   0   0   0
       146     137       2   -2.9622    1.1840   -1.1899   0   0   0
       147     138       2    5.2304    1.4345    5.2337   0   0   0
       148     139       2   -2.3295    0.0379    2.7780   0   0   0
       149     140       2   -0.5481   -7.1324   -0.5477   0   0   0
       150     141       2   -0.8561   -5.6041    2.3380   0   0   0
       151     142       2   -3.5614    6.6539   -2.6868   0   0   0
       152     143       2   -1.6157    3.8592   -2.9254   0   0   0
       153     144       2    0.5431   -3.8115   -6.6438   0   0   0
       154     145       2   -4.7239   -0.6092   -0.5727   0   0   0
       155     146       2   -7.0718   -0.2361    0.1389   0   0   0
       156     147       2    3.3280   -4.6154   -5.9281   0   0   0
       157     148       2    0.3735   -6.6914    6.1080   0   0   0
       158     149       2   -1.9044    4.6653    3.9284   0   0   0
       159     150       2   -5.0321   -2.6061   -3.2163   0   0   0
       160     151       2   -4.6569    5.7799    2.2712   0   0   0
       161     152       2   -5.0495    0.5513    1.8691   0   0   0
       162     153       2   -6.8567    1.6750    4.5665   0   0   0
       163     154       2   -5.0988   -2.3979    0.7821   0   0   0
       164     155       2    1.5070   -0.2519   -0.6650   0   0   0
       165     156       2    4.9108   -1.7486   -3.2187   0   0   0
       166     157       2   -0.8751   -0.3150    1.9147   0   0   0
       167     158       2    6.3855    0.3475   -1.2021   0   0   0
       168     159       2    5.6996   -6.1524    6.5548   0   0   0
       169     160       2   -0.3837   -2.7268    5.4871   0   0   0
       170     161       2   -6.3940    3.6226    3.3972   0   0   0
       171     162       2   -7.1648    1.0147    1.1044   0   0   0
       172     163       2    3.1936    7.3242   -6.2453   0   0   0
       173     164       2   -5.2558    0.2321    5.5935   0   0   0
       174     165       2   -3.8863    4.7642   -2.0007   0   0   0
       175     166       2   -6.9793    6.1460    2.8384   0   0   0
       176     167       2   -2.1398    0.7668   -5.0301   0   0   0
       177     168       2    2.4271    3.8207   -0.4188   0   0   0
       178     169       2   -1.3340    3.1111   -6.6882   0   0   0
       179     170       2    0.8550    1.1188   -5.5963   0   0   0
       180     171       2    0.2334   -1.6520   -1.3759   0   0   0
       181     172       2    6.9779    0.3438   -4.0923   0   0   0
       182     173       2   -6.5180   -1.1216    2.7101   0   0   0
       183     174       2   -5.8113    1.5110   -6.9327   0   0   0
       184     175       2   -6.7657   -3.2352    0.9849   0   0   0
       185     176       2    1.1730    6.5925   -0.7713   0   0   0
       186     177       2    3.0855    4.7788   -6.9217   0   0   0
       187     178       2    0.1333   -2.6856    4.1305   0   0   0
       188     179       2   -1.8421    3.5023    2.3188   0   0   0
       189     180       2   -2.4302    3.2521    1.8008   0   0   0
       190     181       2   -5.3530    4.1742   -4.4043   0   0   0
       191     182       2    1.3769   -3.6827    4.5148   0   0   0
       192     183       2   -4.0811    4.9746   -6.0963   0   0   0
       193     184       2    6.2179    2.5539   -5.3728   0   0   0
       194     185       2   -4.6081   -0.3148    5.1123   0   0   0
       195     186       2   -7.3252    3.9618   -4.5353   0   0   0
       196     187       2   -1.3606   -1.8209    5.7831   0   0   0
       197     188       2   -2.7854   -5.7766   -5.5112   0   0   0
       198     189       2    0.5916    0.0208   -5.2145   0   0   0
       199     190       2    0.3465   -3.8026   -5.1423   0   0   0
       200     191       2    5.4557   -4.3450   -5.0672   0   0   0
       201     192       2   -1.3818   -4.3182    3.4846   0   0   0
       202     193       2    0.4965   -4.5419    4.4635   0   0   0
       203     194       2    5.1088    7.0254    1.9471   0   0   0
       204     195       2    5.5044    3.3440   -1.4052   0   0   0
       205     196       2    0.0212    2.3177   -6.6563   0   0   0
       206     197       2    6.3942   -0.2062    1.5401   0   0   0
       207     198       2   -5.8598   -2.2531    0.5969   0   0   0
       208     199       2    0.0707   -5.8898   -4.2899   0   0   0
       209     200       2    6.1401    7.1068   -2.4960   0   0   0
       210     201       2    4.6219   -3.3545    2.3448   0   0   0
       211     202       2    6.7321   -0.8586   -3.1125   0   0   0
       212     203       2   -0.8544   -5.8928    3.9775   0   0   0
       213     204       2   -4.9723    0.4770    6.4351   0   0   0
       214     205       2   -5.3587   -4.2255   -2.9085   0   0   0
       215     206       2    4.0586    0.5927    3.1913   0   0   0
       216     207       2   -1.2530    6.1320    4.3586   0   0   0
       217     208       2   -3.3411    7.3629   -4.7729   0   0   0
       218     209       2    3.2577    7.1383   -3.5555   0   0   0
       219     210       2    2.6732   -5.3966   -5.9359   0   0   0
       220     211       2    1.5364    6.8335    7.1657   0   0   0
       221     212       2    0.0978    5.9165   -3.6108   0   0   0
       222     213       2    2.3527    6.4419    4.7075   0   0   0
       223     214       2    4.9852   -3.7955   -4.3773   0   0   0
       224     215       2   -1.5757   -3.3547   -0.6287   0   0   0
       225     216       2   -4.4164    4.8198    3.7597   0   0   0
       226     217       2   -7.0531    4.5243   -5.3765   0   0   0
       227     218       2   -7.3441   -3.6378    6.2060   0   0   0
       228     219       2   -6.7750    2.1375    4.2832   0   0   0
       229     220       2   -1.9116    2.0028   -3.1296   0   0   0
       230     221       2    6.8253    2.1964    6.2751   0   0   0
       231     222       2    3.7129    2.1810   -2.2828   0   0   0
       232     223       2    1.8793    1.3567   -3.9725   0   0   0
       233     224       2    1.9258    1.1568   -1.2577   0   0   0
       234     225       2    0.6006    4.4177    2.5486   0   0   0
       235     226       2   -5.9580   -1.1179    4.5241   0   0   0
       236     227       2    5.4662   -3.4787   -4.2368   0   0   0
       237     228       2   -0.2084   -6.2718    5.9864   0   0   0
       238     229       2    5.9994    2.8024   -2.3786   0   0   0
       239     230       2    0.3111    6.8719    3.3922   0   0   0
       240     231       2   -3.3971   -4.8003   -0.1424   0   0   0
       241     232       2   -4.0360   -4.7147    6.4773   0   0   0
       242     233       2   -5.0127   -1.1916    6.2077   0   0   0
       243     234       2    7.0436   -1.7619   -5.1603   0   0   0
       244     235       2   -2.8321    4.6415    1.2536   0   0   0
       245     236       2    3.9024    0.7128    2.2401   0   0   0
       246     237       2    2.3573   -4.0944    2.6396   0   0   0
       247     238       2    4.4969    6.0506   -7.2681   0   0   0
       248     239       2    4.8606   -4.1534   -1.0180   0   0   0
       249     240       2    3.3619    4.1319   -7.3102   0   0   0
       250     241       2    6.3704   -2.1953   -1.2838   0   0   0
       251     242       2    5.4253    2.0693   -5.5975   0   0   0
       252     243       2   -3.9234    0.3495    1.9750   0   0   0
       253     244       2    1.9231    0.0511    3.5984   0   0   0
       254     245       2   -3.9528    7.3352    0.8298   0   0   0
       255     246       2    6.0135    4.1701    1.1046   0   0   0
       256     247       2   -6.9352   -4.9545    4.1388   0   0   0
       257     248       2    5.4723   -5.6910    2.3879   0   0   0
       258     249       2   -6.7250    1.5166   -1.0274   0   0   0
       259     250       2    6.4100   -0.1429    2.6878   0   0   0
       260     251       2    2.9548    6.2401    6.2441   0   0   0
       261     252       2   -0.7469    1.3835    3.3942   0   0   0
       262     253       2    0.3316   -3.3249   -0.9220   0   0   0
       263     254       2    7.3417    6.8972    1.3158   0   0   0
       264     255       2    1.1302   -4.4690    6.7395   0   0   0
       265     256       2    5.1635   -1.6883    7.3400   0   0   0
       266     257       2   -6.8571   -5.6046   -6.0640   0   0   0
       267     258       2    3.3573    0.4327    0.1942   0   0   0
       268     259       2    4.2418   -4.0453    2.6080   0   0   0
       269     260       2    4.9553   -5.5321    3.0805   0   0   0
       270     261       2   -4.4317   -0.7133    4.2645   0   0   0
       271     262       2   -6.3456    5.4134   -5.7895   0   0   0
       272     263       2    0.0048    6.7759   -1.3634   0   0   0
       273     264       2   -5.1878    6.2268    3.1964   0   0   0
       274     265       2   -4.6513   -3.9714    4.6765   0   0   0
       275     266       2   -0.8258    2.5133    7.1313   0   0   0
       276     267       2   -3.7304   -0.7746    6.8721   0   0   0
       277     268       2    6.7499    4.1779   -0.8234   0   0   0
       278     269       2   -1.2962    2.8909   -4.8620   0   0   0
       279     270       2   -5.3453    1.2208   -1.5254   0   0   0
       280     271       2    1.3911   -1.9415    0.9871   0   0   0
       281     272       2   -5.6742    3.9639    2.0559   0   0   0
       282     273       2    5.2473    4.4561   -0.9637   0   0   0
       283     274       2    0.4311    1.9560    6.8898   0   0   0
       284     275       2   -6.0523   -7.1909    4.3479   0   0   0
       285     276       2   -6.2108   -0.0129    4.9178   0   0   0
       286     277       2   -2.1217   -3.8769    0.0907   0   0   0
       287     278       2    5.3870    6.4528   -3.3693   0   0   0
       288     279       2    4.7712   -2.4013    2.6004   0   0   0
       289     280       2   -5.1922    6.1988    5.3693   0   0   0
       290     281       2    4.1075   -3.5069   -7.1777   0   0   0
       291     282       2    5.5521   -6.1988   -5.7245   0   0   0
       292     283       2   -0.2982    3.5427    3.2470   0   0   0
       293     284       2    4.4085   -4.6795   -5.4321   0   0   0
       294     285       2    2.2641   -6.4199   -3.9852   0   0   0
       295     286       2   -4.9380    1.0774    7.1969   0   0   0
       296     287       2    6.9059   -0.9774    5.6448   0   0   0
       297     288       2    3.0696    3.5352   -3.8033   0   0   0
       298     289       2   -2.0903    6.8141    6.1621   0   0   0
       299     290       2   -7.2168   -2.8433   -5.8669   0   0   0
       300     291       2   -3.2181   -6.4596    6.9871   0   0   0
       301     292       2    6.7739   -5.4688    5.0231   0   0   0
       302     293       2   -0.9621   -1.9174    7.0522   0   0   0
       303     294       2   -5.6522    5.8123    0.4517   0   0   0
       304     295       2   -6.0460   -4.3084    5.5299   0   0   0
       305     296       2    3.6068    4.4073    5.0648   0   0   0
       306     297       2    4.9263   -6.3521   -0.4325   0   0   0
       307     298       2    3.1786    6.7475   -6.9614   0   0   0
       308     299       2   -2.5349   -1.0892    0.7181   0   0   0
       309     300       2    2.2511   -5.1004    0.2000   0   0   0
       310     301       2   -2.5199    0.8829   -2.0221   0   0   0
       311     302       2    3.1580   -0.1577    5.4417   0   0   0
       312     303       2   -3.6309    4.5698    6.9734   0   0   0
       313     304       2   -1.6501    0.6554   -4.3596   0   0   0
       314     305       2    0.9000    6.1902   -5.8804   0   0   0
       315     306       2    6.4337   -0.7349   -4.2068   0   0   0
       316     307       2    1.8103   -6.6731    4.4081   0   0   0
       317     308       2    2.4865   -0.8645    1.5606   0   0   0
       318     309       2   -0.6212    3.8137   -0.7092   0   0   0
       319     310       2    0.0963   -4.6964    4.3929   0   0   0
       320     311       2   -0.9292    5.5858   -0.6586   0   0   0
       321     312       2   -4.9923    2.6798    2.3835   0   0   0
       322     313       2   -7.2179   -6.6762   -4.4040   0   0   0
       323     314       2    7.1093   -3.9376   -1.9782   0   0   0
       324     315       2    2.3758   -3.4915    1.9075   0   0   0
       325     316       2    3.4481    7.1573    5.6298   0   0   0
       326     317       2    1.8382    3.5450   -1.6398   0   0   0
       327     318       2   -3.4838   -2.8262    1.7142   0   0   0
       328     319       2    0.7681    1.6910   -5.6843   0   0   0
       329     320       2   -3.2209    5.7879    3.2827   0   0   0
       330     321       2   -0.1174    4.1409   -3.7039   0   0   0
       331     322       2    0.8227    4.1743   -2.9473   0   0   0
       332     323       2    1.4785    7.2214    6.9439   0   0   0
       333     324       2    3.6273   -5.8691    4.2751   0   0   0
       334     325       2   -4.5107   -1.5672    6.7879   0   0   0
       335     326       2    7.1377    0.1958    1.9062   0   0   0
       336     327       2   -2.8992   -0.6728   -7.2431   0   0   0
       337     328       2   -2.7587    0.4082    1.4389   0   0   0
       338     329       2    5.3140    4.1514   -4.4545   0   0   0
       339     330       2   -1.1014    1.6223    4.0225   0   0   0
       340     331       2   -1.9965    5.0031    1.6038   0   0   0
       341     332       2    4.1558   -3.9718   -1.3957   0   0   0
       342     333       2   -2.2778   -2.0054    3.5165   0   0   0
       343     334       2    5.7096    0.1187    2.9696   0   0   0
       344     335       2    3.6385    5.4293   -4.3368   0   0   0
       345     336       2    0.0571    0.1667   -1.7850   0   0   0
       346     337       2    5.1938    4.7431   -2.2920   0   0   0
       347     338       2   -4.9627   -0.1477   -4.3639   0   0   0
       348     339       2    1.6923    0.1677    0.2262   0   0   0
       349     340       2   -4.1578   -1.1054   -5.4105   0   0   0
       350     341       2   -3.8784    4.8847    3.7343   0   0   0
       351     342       2   -7.0875    1.3928   -1.7559   0   0   0
       352     343       2   -6.8554   -6.6918   -0.2253   0   0   0
       353     344       2    5.3924   -6.1028    0.1964   0   0   0
       354     345       2   -4.2475   -2.6971    2.2062   0   0   0
       355     346       2   -6.4867   -6.0856   -6.2672   0   0   0
       356     347       2   -5.1448    6.6720   -7.0419   0   0   0
       357     348       2    1.2108    7.0153   -5.8204   0   0   0
       358     349       2   -3.6157   -6.5875   -3.1348   0   0   0
       359     350       2    6.9514   -3.1010    0.5574   0   0   0
       360     351       2    0.2824   -3.1341    4.3818   0   0   0
       361     352       2    3.8736    3.6078    5.9762   0   0   0
       362     353       2   -3.1254    3.1495    3.9735   0   0   0
       363     354       2    0.1902   -4.0719   -3.2685   0   0   0
       364     355       2    2.9830   -6.9823   -0.2461   0   0   0
       365     356       2   -4.8776   -1.6259   -6.2325   0   0   0
       366     357       2    2.8950    4.0248   -6.8068   0   0   0
       367     358       2   -1.7384    6.5657    5.7906   0   0   0
       368     359       2    4.7392    5.9921   -1.8596   0   0   0
       369     360       2    5.7370    3.7162   -1.6462   0   0   0
       370     361       2    6.0531    5.9288   -4.2490   0   0   0
       371     362       2    1.5116    2.0791   -4.0800   0   0   0
       372     363       2   -6.5777    0.0415    3.3374   0   0   0
       373     364       2    4.5168    0.2247   -0.0792   0   0   0
       374     365       2   -2.8781   -0.2245    3.8899   0   0   0
       375     366       2   -2.0229    4.1318    5.9186   0   0   0
       376     367       2    2.7340   -1.3900    5.9072   0   0   0
       377     368       2    1.5102   -5.4480    0.1177   0   0   0
       378     369       2    2.2230   -3.7543   -4.9390   0   0   0
       379     370       2   -0.4284   -2.0257    2.1993   0   0   0
       380     371       2   -5.0634    3.4128    3.7072   0   0   0
       381     372       2   -5.8274   -4.0094    0.8204   0   0   0
       382     373       2   -3.7310    2.7906    5.5310   0   0   0
       383     374       2   -6.0323    4.3663   -6.9592   0   0   0
       384     375       2    4.4210   -1.4461    6.3640   0   0   0
       385     376       2   -6.3285   -1.7114    3.3900   0   0   0
       386     377       2    4.1860    2.1112    4.0038   0   0   0
       387     378       2   -6.5329    0.4112    6.8168   0   0   0
       388     379       2    6.7172    0.1390    5.7496   0   0   0
       389     380       2   -6.4805   -4.9541   -3.6410   0   0   0
       390     381       2   -2.8554   -2.0060   -6.1267   0   0   0
       391     382       2   -2.5842   -2.5209   -1.3619   0   0   0
       392     383       2    5.8404    0.3093    5.1852   0   0   0
       393     384       2   -7.2689    6.7607   -6.0548   0   0   0
       394     385       2   -4.0633   -6.0709    4.3527   0   0   0
       395     386       2    0.9239   -5.0100    0.3722   0   0   0
       396     387       2    0.4951    0.4139   -5.8046   0   0   0
       397     388       2   -3.1406   -2.5589   -5.4699   0   0   0
       398     389       2    0.7667   -6.5891    0.1442   0   0   0
       399     390       2    4.7255   -2.6718   -0.6850   0   0   0
       400     391       2   -5.8269    4.4723    5.1290   0   0   0
       401     392       2   -6.8379    6.8222   -6.0886   0   0   0
       402     393       2    3.0794    5.6303   -5.2250   0   0   0
       403     394       2    1.9303    2.6683    0.4134   0   0   0
       404     395       2   -0.3634   -1.1480    0.5212   0   0   0
       405     396       2   -3.1080    0.5623   -6.0518   0   0   0
       406     397       2    1.4265    4.0603   -0.5866   0   0   0
       407     398       2   -5.2373    1.1796   -0.4449   0   0   0
       408     399       2    2.1737    6.9130    0.7214   0   0   0
       409     400       2   -1.2513    5.4090   -6.4696   0   0   0
       410     401       2    1.3373   -5.3313    0.3610   0   0   0
       411     402       2    3.5793   -0.6786   -1.9021   0   0   0
       412     403       2   -1.3801   -5.6345   -6.9408   0   0   0
       413     404       2    4.3525   -2.5289   -3.5441   0   0   0
       414     405       2    2.0189    2.7153   -6.5160   0   0   0
       415     406       2    2.8639   -2.5998    0.2869   0   0   0
       416     407       2   -1.3041    2.8255    2.3118   0   0   0
       417     408       2   -2.5914   -5.3147   -1.9063   0   0   0
       418     409       2    1.1278   -2.0458    3.5189   0   0   0
       419     410       2    1.7412   -4.0626    6.0728   0   0   0
       420     411       2   -2.4454   -1.5160   -2.1065   0   0   0
       421     412       2    1.2032   -2.6899    4.7490   0   0   0
       422     413       2   -5.3987    3.2595   -5.4669   0   0   0
       423     414       2   -6.9596   -2.5928   -0.2752   0   0   0
       424     415       2    6.0199   -6.2623    4.0467   0   0   0
       425     416       2    6.7745    4.7696    1.6457   0   0   0
       426     417       2    0.2176   -0.5352    4.0813   0   0   0
       427     418       2   -1.2171    4.5815   -3.6332   0   0   0
       428     419       2   -5.9683    4.0413    5.0022   0   0   0