LAMMPS (15 Apr 2020)
OMP_NUM_THREADS environment is not set. Defaulting to 1 thread. (../comm.cpp:94)
  using 1 OpenMP thread(s) per MPI task
# 3d Lennard-Jones melt

units 		lj # reduced
dimension	3
atom_style 	bond # angle can also be used but since angles are not defined for the polymer  bond is sufficient
read_data 	out.data
  orthogonal box = (-7.37594 -7.37594 -7.37594) to (7.37594 7.37594 7.37594)
  1 by 1 by 1 MPI processor grid
  reading atoms ...
  2010 atoms
  scanning bonds ...
  1 = max bonds/atom
  reading bonds ...
  9 bonds
  2 = max # of 1-2 neighbors
  2 = max # of 1-3 neighbors
  4 = max # of 1-4 neighbors
  6 = max # of special neighbors
  special bonds CPU = 0.0089532 secs
  read_data CPU = 0.0269143 secs
include 	  forcefield.data
# Defining the force field type, atom masses pair coeeficients and bond types and coeffcients

mass 1  1.0 # Polymer atoms
mass 2  1.0 # lj fluid atoms

pair_style lj/cut 3.5

pair_coeff 1 1 0.3 1.0 3.5
pair_coeff 1 2 0.3 1.0 3.5
pair_coeff 2 2 0.3 1.0 3.5

bond_style fene
bond_coeff 1 30.0 1.5 1.0 1.0

minimize    1.0e-4 1.0e-6 100 1000
WARNING: Using 'neigh_modify every 1 delay 0 check yes' setting during minimization (../min.cpp:190)
WARNING: Use special bonds = 0,1,1 with bond style fene (../bond_fene.cpp:188)
Neighbor list info ...
  update every 1 steps, delay 0 steps, check yes
  max neighbors/atom: 2000, page size: 100000
  master list distance cutoff = 3.8
  ghost atom cutoff = 3.8
  binsize = 1.9, bins = 8 8 8
  1 neighbor lists, perpetual/occasional/extra = 1 0 0
  (1) pair lj/cut, perpetual
      attributes: half, newton on
      pair build: half/bin/newton
      stencil: half/bin/3d/newton
      bin: standard
Per MPI rank memory allocation (min/avg/max) = 6.156 | 6.156 | 6.156 Mbytes
Step Temp E_pair E_mol TotEng Press 
       0            0 1.1880645e+09  0.090633851 1.1880645e+09 2.9754589e+09 
      98            0    -1.533932  0.090522169   -1.4434098  -0.68098936 
Loop time of 0.815628 on 1 procs for 98 steps with 2010 atoms

99.6% CPU use with 1 MPI tasks x 1 OpenMP threads

Minimization stats:
  Stopping criterion = energy tolerance
  Energy initial, next-to-last, final = 
         1188064547.65     -1.44327187545     -1.44340982877
  Force two-norm initial, final = 3.6832e+14 35.5183
  Force max component initial, final = 2.42455e+14 10.2341
  Final line search alpha, max atom move = 0.00657537 0.0672931
  Iterations, force evaluations = 98 184

MPI task timing breakdown:
Section |  min time  |  avg time  |  max time  |%varavg| %total
---------------------------------------------------------------
Pair    | 0.60039    | 0.60039    | 0.60039    |   0.0 | 73.61
Bond    | 0.0001785  | 0.0001785  | 0.0001785  |   0.0 |  0.02
Neigh   | 0.19389    | 0.19389    | 0.19389    |   0.0 | 23.77
Comm    | 0.0077748  | 0.0077748  | 0.0077748  |   0.0 |  0.95
Output  | 0          | 0          | 0          |   0.0 |  0.00
Modify  | 0          | 0          | 0          |   0.0 |  0.00
Other   |            | 0.01339    |            |       |  1.64

Nlocal:    2010 ave 2010 max 2010 min
Histogram: 1 0 0 0 0 0 0 0 0 0
Nghost:    4960 ave 4960 max 4960 min
Histogram: 1 0 0 0 0 0 0 0 0 0
Neighs:    143702 ave 143702 max 143702 min
Histogram: 1 0 0 0 0 0 0 0 0 0

Total # of neighbors = 143702
Ave neighs/atom = 71.4935
Ave special neighs/atom = 0.0238806
Neighbor list builds = 38
Dangerous builds = 0

neighbor	   0.3 bin   #skin factor is taken to 0.3
neigh_modify       every 20 delay 0 check no
timestep           0.005    #default for lj

group poly type 1
10 atoms in group poly
group fluid type 2
2000 atoms in group fluid

variable N equal 1000
variable tempext equal 0.3
variable tdamp equal 0.50
variable pext equal 1.0
variable pdamp equal 5.0
variable Nevery equal 100
variable Nfreq equal 100000
variable Nrepeat equal 100

reset_timestep 0

#Using Npt to Calculate the properties
velocity	all create ${tempext} 87287
velocity	all create 0.3 87287
dump		dumpnpt all atom 1000 npt.out.dump
compute         radgy poly gyration
fix             radav poly ave/time ${Nevery} ${Nrepeat} ${Nfreq} c_radgy file npt.radgy
fix             radav poly ave/time 100 ${Nrepeat} ${Nfreq} c_radgy file npt.radgy
fix             radav poly ave/time 100 100 ${Nfreq} c_radgy file npt.radgy
fix             radav poly ave/time 100 100 100000 c_radgy file npt.radgy
thermo		${N}
thermo		1000
thermo_style    custom step pe ke etotal press temp vol density lx ly lz
restart         50000 restart1npt.out restart2npt.out

fix 		        nptid all npt temp ${tempext} ${tempext} ${tdamp} iso ${pext} ${pext} ${pdamp}
fix 		        nptid all npt temp 0.3 ${tempext} ${tdamp} iso ${pext} ${pext} ${pdamp}
fix 		        nptid all npt temp 0.3 0.3 ${tdamp} iso ${pext} ${pext} ${pdamp}
fix 		        nptid all npt temp 0.3 0.3 0.5 iso ${pext} ${pext} ${pdamp}
fix 		        nptid all npt temp 0.3 0.3 0.5 iso 1 ${pext} ${pdamp}
fix 		        nptid all npt temp 0.3 0.3 0.5 iso 1 1 ${pdamp}
fix 		        nptid all npt temp 0.3 0.3 0.5 iso 1 1 5
run		          1000000
WARNING: Use special bonds = 0,1,1 with bond style fene (../bond_fene.cpp:188)
Per MPI rank memory allocation (min/avg/max) = 5.608 | 5.608 | 5.608 Mbytes
Step PotEng KinEng TotEng Press Temp Volume Density Lx Ly Lz 
       0   -1.4434098   0.44977612  -0.99363371  -0.49324853          0.3    3210.2767   0.62611425    14.751884    14.751884    14.751884 
    1000   -1.6431006   0.45134819   -1.1917524   0.94386565   0.30104857    2279.5398   0.88175691    13.160803    13.160803    13.160803 
    2000   -1.6649446   0.44633298   -1.2186116    1.0194754   0.29770343    2245.9306   0.89495196    13.095802    13.095802    13.095802 
    3000    -1.674093   0.44897134   -1.2251217    1.0377722   0.29946321    2239.6303   0.89746954    13.083545    13.083545    13.083545 
    4000   -1.6553551   0.45079719   -1.2045579   0.94375456   0.30068105    2264.1475   0.88775136    13.131114    13.131114    13.131114 
    5000   -1.6536814   0.45365396   -1.2000275   0.99151654   0.30258652    2258.2315   0.89007703    13.119667    13.119667    13.119667 
    6000   -1.6646555   0.45379169   -1.2108638    1.0635259   0.30267838    2241.0857   0.89688671    13.086379    13.086379    13.086379 
    7000   -1.6753189   0.44144969   -1.2338692   0.89993788   0.29444628     2255.745   0.89105817     13.11485     13.11485     13.11485 
    8000   -1.6672199   0.45485832   -1.2123615    1.0674001   0.30338982    2239.5309   0.89750938    13.083352    13.083352    13.083352 
    9000   -1.6660361    0.4629153   -1.2031208   0.93473617   0.30876382    2261.7447   0.88869446    13.126467    13.126467    13.126467 
   10000   -1.6684668   0.45457469   -1.2138921    1.0084803   0.30320064    2247.6565   0.89426477    13.099156    13.099156    13.099156 
   11000   -1.6585477   0.44553265   -1.2130151    1.0790288   0.29716961    2240.3672   0.89717437     13.08498     13.08498     13.08498 
   12000   -1.6707373   0.45854464   -1.2121926   0.97819311   0.30584859    2248.0759   0.89409794    13.099971    13.099971    13.099971 
   13000   -1.6693899   0.43480622   -1.2345836   0.95332793    0.2900151    2250.3529   0.89319325    13.104392    13.104392    13.104392 
   14000   -1.6619226   0.46192565   -1.1999969    1.0635168   0.30810372    2241.5874     0.896686    13.087355    13.087355    13.087355 
   15000   -1.6583876   0.44972691   -1.2086607   0.98224706   0.29996718    2258.4245   0.89000096    13.120041    13.120041    13.120041 
   16000   -1.6491106   0.43688455   -1.2122261    1.0116664   0.29140134    2260.4285   0.88921195     13.12392     13.12392     13.12392 
   17000   -1.6592215    0.4635484   -1.1956731    1.0436854   0.30918609    2250.3154   0.89320811    13.104319    13.104319    13.104319 
   18000   -1.6769301   0.44627347   -1.2306566    1.1085745   0.29766374     2221.233   0.90490283    13.047622    13.047622    13.047622 
   19000   -1.6720398   0.45584293   -1.2161968   0.99127109   0.30404656    2246.7063   0.89464298     13.09731     13.09731     13.09731 
   20000   -1.6797727   0.43130803   -1.2484647    1.0081845   0.28768181    2234.4132   0.89956505    13.073378    13.073378    13.073378 
   21000   -1.6726264   0.45017029   -1.2224562   0.99009521   0.30026291    2244.0129   0.89571678    13.092074    13.092074    13.092074 
   22000   -1.6819388   0.43923109   -1.2427077        1.023   0.29296648    2232.5953   0.90029753    13.069832    13.069832    13.069832 
   23000    -1.667656   0.45659141   -1.2110646   0.96868549   0.30454579    2252.2704    0.8924328    13.108113    13.108113    13.108113 
   24000   -1.6629859   0.45500916   -1.2079767    1.0088343   0.30349043    2248.6127   0.89388448    13.101013    13.101013    13.101013 
   25000   -1.6597004   0.44429915   -1.2154013   0.95219439   0.29634687    2262.0951    0.8885568    13.127145    13.127145    13.127145 
   26000   -1.6633671   0.45016946   -1.2131976     1.073097   0.30026236    2239.2689   0.89761438    13.082842    13.082842    13.082842 
   27000   -1.6632451   0.44823677   -1.2150084   0.99420037   0.29897326    2251.6534   0.89267735    13.106916    13.106916    13.106916 
   28000   -1.6877284     0.442888   -1.2448404   0.98400088   0.29540564     2234.858   0.89938601    13.074246    13.074246    13.074246 
   29000   -1.6642095   0.45243601   -1.2117735   0.98299173   0.30177415    2253.7982   0.89182783    13.111076    13.111076    13.111076 
   30000   -1.6579442   0.45912154   -1.1988227    1.0008588   0.30623338    2255.2062   0.89127104    13.113806    13.113806    13.113806 
   31000   -1.6652639   0.45446211   -1.2108018    1.0620836   0.30312555    2239.2727   0.89761289    13.082849    13.082849    13.082849 
   32000    -1.664496   0.44721097    -1.217285   0.98388074   0.29828905    2252.0095   0.89253619    13.107607    13.107607    13.107607 
   33000   -1.6618517   0.44647234   -1.2153793   0.97211173   0.29779638    2255.8149   0.89103053    13.114986    13.114986    13.114986 
   34000   -1.6698502   0.45600868   -1.2138415   0.99472941   0.30415711    2245.0507   0.89530272    13.094092    13.094092    13.094092 
   35000   -1.6789354   0.43534406   -1.2435913   0.88767912   0.29037384    2251.6253   0.89268849    13.106861    13.106861    13.106861 
   36000    -1.669801   0.46077181   -1.2090292    1.0186607   0.30733411    2242.0709   0.89649263    13.088296    13.088296    13.088296 
   37000     -1.67182   0.45268682   -1.2191332   0.92067367   0.30194143    2254.9671   0.89136557    13.113342    13.113342    13.113342 
   38000   -1.6672579   0.44639784     -1.22086   0.98938195   0.29774669    2248.7126   0.89384479    13.101207    13.101207    13.101207 
   39000   -1.6576657   0.45488834   -1.2027774    1.0117553   0.30340984    2252.6913   0.89226607    13.108929    13.108929    13.108929 
   40000   -1.6705395   0.44264229   -1.2278972   0.97468112   0.29524174    2249.7386   0.89343712      13.1032      13.1032      13.1032 
   41000   -1.6679988   0.44385954   -1.2241392   0.99776057   0.29605365    2246.9408    0.8945496    13.097766    13.097766    13.097766 
   42000   -1.6637333   0.46561759   -1.1981157   0.95960083   0.31056624     2256.079   0.89092626    13.115497    13.115497    13.115497 
   43000    -1.664845   0.46777139   -1.1970736    1.0822328   0.31200282     2238.883    0.8977691     13.08209     13.08209     13.08209 
   44000   -1.6838465   0.45166406   -1.2321825   0.93583019   0.30125926    2243.8004   0.89580162    13.091661    13.091661    13.091661 
   45000   -1.6692221   0.45007996   -1.2191422    1.0415762   0.30020266      2238.63   0.89787058    13.081597    13.081597    13.081597 
   46000    -1.673155   0.44965392    -1.223501   0.90954819   0.29991849     2255.476   0.89116444    13.114329    13.114329    13.114329 
   47000   -1.6714303   0.45378714   -1.2176432    1.0204793   0.30267535    2243.9004    0.8957617    13.091855    13.091855    13.091855 
   48000   -1.6664278   0.45405751   -1.2123703   0.99392481   0.30285568    2247.2924   0.89440966    13.098449    13.098449    13.098449 
   49000   -1.6684508   0.44599016   -1.2224607    1.0164205   0.29747477    2243.6666   0.89585504      13.0914      13.0914      13.0914 
   50000    -1.672004   0.45602252   -1.2159814   0.94900671   0.30416634    2255.0902   0.89131692    13.113581    13.113581    13.113581 
   51000   -1.6635026   0.46674492   -1.1967576    1.0735261   0.31131816    2240.0343   0.89730771    13.084332    13.084332    13.084332 
   52000   -1.6712381   0.44674673   -1.2244914   0.93045595    0.2979794    2257.6951    0.8902885    13.118628    13.118628    13.118628 
   53000   -1.6674255   0.44284746    -1.224578    1.0125213    0.2953786    2242.8924   0.89616427    13.089894    13.089894    13.089894 
   54000   -1.6887533   0.45500548   -1.2337478    1.0354197   0.30348798    2223.4292   0.90400901    13.051921    13.051921    13.051921 
   55000   -1.6725804   0.44894271   -1.2236377    1.0180286   0.29944412    2239.4271   0.89755097     13.08315     13.08315     13.08315 
   56000   -1.6797457   0.44351112   -1.2362346   0.97654567   0.29582125    2238.9338   0.89774874    13.082189    13.082189    13.082189 
   57000   -1.6646692   0.45576155   -1.2089077   0.98622286   0.30399227    2252.4679   0.89235456    13.108496    13.108496    13.108496 
   58000    -1.653979   0.46636993   -1.1876091      1.02374   0.31106805    2255.5599   0.89113129    13.114491    13.114491    13.114491 
   59000   -1.6721727   0.44671733   -1.2254554   0.94089084   0.29795979    2252.1386   0.89248505    13.107857    13.107857    13.107857 
   60000    -1.665833   0.45843301      -1.2074    1.0749703   0.30577413    2237.2514   0.89842384    13.078911    13.078911    13.078911 
   61000   -1.6768052   0.44874732   -1.2280579   0.96499774   0.29931379    2245.0345    0.8953092     13.09406     13.09406     13.09406 
   62000   -1.6577496     0.438033   -1.2197166      1.06933   0.29216736    2242.7206   0.89623291     13.08956     13.08956     13.08956 
   63000   -1.6679893   0.44713434   -1.2208549    1.0222538   0.29823794    2241.3829   0.89676779    13.086957    13.086957    13.086957 
   64000   -1.6801729   0.45586125   -1.2243116    1.0044577   0.30405877    2237.5892   0.89828823    13.079569    13.079569    13.079569 
   65000   -1.6764798   0.45627537   -1.2202045   0.97622066   0.30433499    2246.6193   0.89467761    13.097141    13.097141    13.097141 
   66000   -1.6718831   0.45659747   -1.2152856   0.97319137   0.30454983    2248.8369   0.89379538    13.101449    13.101449    13.101449 
   67000   -1.6704973   0.45861512   -1.2118822   0.96184717    0.3058956    2251.7197   0.89265107    13.107045    13.107045    13.107045 
   68000   -1.6676898   0.44822288    -1.219467    0.9451533   0.29896399    2256.4087   0.89079605    13.116136    13.116136    13.116136 
   69000   -1.6660908   0.45082526   -1.2152655    1.1015406   0.30069977    2231.8779   0.90058689    13.068432    13.068432    13.068432 
   70000   -1.6739905   0.43331694   -1.2406735   0.92682115   0.28902175     2253.195   0.89206661    13.109906    13.109906    13.109906 
   71000   -1.6539403   0.45053617   -1.2034041    1.0252591   0.30050696    2253.3368   0.89201048    13.110181    13.110181    13.110181 
   72000   -1.6679509   0.44166698   -1.2262839    1.0237411   0.29459122    2244.7995   0.89540293    13.093603    13.093603    13.093603 
   73000   -1.6748981   0.43743074   -1.2374673   0.97246291   0.29176565    2244.4781   0.89553112    13.092979    13.092979    13.092979 
   74000   -1.6795971   0.45481255   -1.2247845    1.0362964   0.30335929     2231.818   0.90061106    13.068315    13.068315    13.068315 
   75000    -1.670007   0.44131314   -1.2286938    1.0340372   0.29435521    2238.8032   0.89780109    13.081935    13.081935    13.081935 
   76000   -1.6578566   0.44280671   -1.2150499    1.0873016   0.29535142    2241.9095   0.89655717    13.087982    13.087982    13.087982 
   77000   -1.6760575   0.45494753     -1.22111   0.91523988   0.30344932    2255.1717   0.89128467    13.113739    13.113739    13.113739 
   78000   -1.6661892   0.46241989   -1.2037693     1.057052   0.30843337    2242.2428   0.89642389    13.088631    13.088631    13.088631 
   79000   -1.6702177    0.4501919   -1.2200258   0.92911169   0.30027733    2255.5969   0.89111668    13.114563    13.114563    13.114563 
   80000   -1.6593861   0.46287811    -1.196508   0.98324804   0.30873901    2261.3386   0.88885406    13.125682    13.125682    13.125682 
   81000   -1.6574431   0.45018695   -1.2072562   0.90149145   0.30027402    2273.9474   0.88392545    13.150032    13.150032    13.150032 
   82000   -1.6774696   0.43436301   -1.2431066   0.94389829   0.28971948    2246.9878   0.89453089    13.097857    13.097857    13.097857 
   83000   -1.6620579    0.4424401   -1.2196178    1.0928385   0.29510689    2237.5353   0.89830986    13.079465    13.079465    13.079465 
   84000    -1.672961   0.43947034   -1.2334906   0.98133556   0.29312606    2245.1544   0.89526138    13.094293    13.094293    13.094293 
   85000   -1.6534325   0.45108814   -1.2023444   0.99333987   0.30087512    2260.3716   0.88923431     13.12381     13.12381     13.12381 
   86000   -1.6772402   0.44809208   -1.2291482   0.91683261   0.29887675    2251.5138   0.89273269    13.106645    13.106645    13.106645 
   87000   -1.6697841   0.44805232   -1.2217318   0.91243962   0.29885023     2260.403   0.88922198    13.123871    13.123871    13.123871 
   88000   -1.6637586   0.46362765    -1.200131    1.0216591   0.30923895    2247.5037   0.89432558    13.098859    13.098859    13.098859 
   89000   -1.6845726   0.44251172   -1.2420609   0.98875607   0.29515465    2233.4502   0.89995292      13.0715      13.0715      13.0715 
   90000   -1.6766075   0.43602078   -1.2405868   0.99973107   0.29082521    2235.3685   0.89918061    13.075241    13.075241    13.075241 
   91000   -1.6583258   0.44586663   -1.2124591   0.99089927   0.29739237    2256.5612   0.89073587    13.116432    13.116432    13.116432 
   92000   -1.6482136   0.44898861    -1.199225    1.1906418   0.29947473     2234.136   0.89967667    13.072838    13.072838    13.072838 
   93000    -1.675529   0.43020685   -1.2453221    1.0228225   0.28694732    2233.3431   0.89999608    13.071291    13.071291    13.071291 
   94000   -1.6699409   0.44573073   -1.2242102    1.0790348   0.29730173    2233.3538   0.89999175    13.071312    13.071312    13.071312 
   95000    -1.664468   0.43884379   -1.2256242   0.96941425   0.29270816    2253.0624   0.89211909    13.109649    13.109649    13.109649 
   96000   -1.6743308   0.44686432   -1.2274665   0.99769859   0.29805783    2240.5667   0.89709445    13.085369    13.085369    13.085369 
   97000   -1.6613643   0.45212463   -1.2092397    1.0601339   0.30156646      2240.68   0.89704912    13.085589    13.085589    13.085589 
   98000   -1.6727421   0.43651685   -1.2362252   0.92015039   0.29115609    2254.2681   0.89164196    13.111987    13.111987    13.111987 
   99000    -1.665863   0.44941899    -1.216444    1.0008074    0.2997618    2248.6835   0.89385632    13.101151    13.101151    13.101151 
  100000   -1.6642333   0.43184916   -1.2323841    1.1213342   0.28804274     2228.381   0.90200015    13.061603    13.061603    13.061603 
  101000   -1.6605916   0.44578605   -1.2148056    1.0137511   0.29733863    2250.0838   0.89330007     13.10387     13.10387     13.10387 
  102000   -1.6671017   0.44778977   -1.2193119      1.04477   0.29867511    2238.6857   0.89784823    13.081706    13.081706    13.081706 
  103000   -1.6582783   0.44195571   -1.2163226    1.0323467    0.2947838     2249.844   0.89339527    13.103404    13.103404    13.103404 
  104000   -1.6746449   0.44978037   -1.2248645   0.98935416   0.30000283    2240.3663    0.8971747    13.084978    13.084978    13.084978 
  105000   -1.6858984   0.45371524   -1.2321832   0.97439425   0.30262739    2238.6126   0.89787756    13.081563    13.081563    13.081563 
  106000   -1.6783489   0.44572454   -1.2326244    1.0546834    0.2972976    2230.0394   0.90132935    13.064843    13.064843    13.064843 
  107000   -1.6696226   0.45026224   -1.2193604    1.0634105   0.30032424    2236.3525   0.89878498    13.077159    13.077159    13.077159 
  108000   -1.6826438   0.44049798   -1.2421458    1.0431731   0.29381149    2229.5663   0.90152063    13.063919    13.063919    13.063919 
  109000   -1.6632719   0.45087491    -1.212397   0.98943092   0.30073289    2253.3377    0.8920101    13.110183    13.110183    13.110183 
  110000   -1.6719654   0.45478023   -1.2171852    1.0425849   0.30333773    2239.3457   0.89758361    13.082991    13.082991    13.082991 
  111000   -1.6664347   0.43879283   -1.2276419    1.0060441   0.29267416    2247.4952   0.89432893    13.098843    13.098843    13.098843 
  112000   -1.6537051   0.45045277   -1.2032524    1.0196535   0.30045133    2255.5406   0.89113892    13.114454    13.114454    13.114454 
  113000   -1.6671501   0.46689695   -1.2002532   0.93995819   0.31141957    2257.8834   0.89021425    13.118993    13.118993    13.118993 
  114000   -1.6707127   0.45909865   -1.2116141   0.90644798   0.30621812     2257.787   0.89025227    13.118806    13.118806    13.118806 
  115000   -1.6665737   0.45603102   -1.2105427   0.99030321   0.30417201     2250.577   0.89310429    13.104827    13.104827    13.104827 
  116000   -1.6595192   0.44383774   -1.2156815    1.0202185   0.29603911    2250.0323   0.89332052     13.10377     13.10377     13.10377 
  117000   -1.6686921   0.44771269   -1.2209794    1.0303824   0.29862369    2238.3953    0.8979647     13.08114     13.08114     13.08114 
  118000   -1.6680922   0.43163086   -1.2364614   0.93597721   0.28789714    2253.7723   0.89183811    13.111026    13.111026    13.111026 
  119000   -1.6538796   0.44866855   -1.2052111     1.128551   0.29926126    2239.7474   0.89742261    13.083773    13.083773    13.083773 
  120000    -1.667675   0.45157253   -1.2161025    1.0030928   0.30119821    2248.2468   0.89402996    13.100303    13.100303    13.100303 
  121000   -1.6671164   0.43826902   -1.2288474    1.0628655   0.29232478    2235.0254   0.89931865    13.074572    13.074572    13.074572 
  122000   -1.6518405   0.43641452    -1.215426    1.0242167   0.29108783    2256.3223   0.89083018    13.115969    13.115969    13.115969 
  123000   -1.6617974   0.46194925   -1.1998482   0.98415355   0.30811946    2255.0032   0.89135129    13.113412    13.113412    13.113412 
  124000   -1.6770705    0.4391292   -1.2379413   0.94697839   0.29289852    2245.5301   0.89511157    13.095024    13.095024    13.095024 
  125000   -1.6628684   0.45894694   -1.2039215    1.0418335   0.30611692    2246.2313   0.89483215    13.096387    13.096387    13.096387 
  126000   -1.6794286   0.44244175   -1.2369868   0.98632206   0.29510799    2238.8392   0.89778668    13.082005    13.082005    13.082005 
  127000   -1.6753163   0.44927702   -1.2260393   0.96344806    0.2996671    2246.1297   0.89487263    13.096189    13.096189    13.096189 
  128000   -1.6684916   0.44281132   -1.2256802    1.0174111   0.29535449    2243.0598   0.89609736     13.09022     13.09022     13.09022 
  129000   -1.6608635   0.45355371   -1.2073098    1.0721247   0.30251965    2245.3215   0.89519474    13.094618    13.094618    13.094618 
  130000    -1.682234   0.45302638   -1.2292076    1.0052259   0.30216792    2238.1026   0.89808214     13.08057     13.08057     13.08057 
  131000    -1.670835   0.45269404    -1.218141   0.84849835   0.30194625    2269.6655   0.88559307    13.141773    13.141773    13.141773 
  132000   -1.6654025   0.45399486   -1.2114076      1.06693   0.30281389    2237.5904   0.89828774    13.079572    13.079572    13.079572 
  133000   -1.6692667   0.46377222   -1.2054945   0.87449585   0.30933538    2266.0353   0.88701178    13.134762    13.134762    13.134762 
  134000   -1.6724387   0.46348746   -1.2089513   0.96616098   0.30914545    2247.0398   0.89451019    13.097958    13.097958    13.097958 
  135000   -1.6778263   0.45624182   -1.2215844   0.99494378   0.30431262    2240.0997   0.89728149    13.084459    13.084459    13.084459 
  136000   -1.6660002   0.43855455   -1.2274457   0.89080978   0.29251523    2264.5605   0.88758944    13.131912    13.131912    13.131912 
  137000   -1.6779334   0.44956488   -1.2283685    1.0431014    0.2998591    2233.1066   0.90009137     13.07083     13.07083     13.07083 
  138000   -1.6674064   0.46341794   -1.2039884   0.98413045   0.30909907    2249.4145   0.89356586     13.10257     13.10257     13.10257 
  139000   -1.6661055    0.4499902   -1.2161153   0.94991752   0.30014279    2256.1326   0.89090507    13.115601    13.115601    13.115601 
  140000   -1.6604606   0.45672164    -1.203739    1.0540196   0.30463265    2243.1675   0.89605434     13.09043     13.09043     13.09043 
  141000   -1.6608553   0.44672733    -1.214128    1.0515789   0.29796646    2243.8101   0.89579773     13.09168     13.09168     13.09168 
  142000    -1.673722   0.44005454   -1.2336675   0.96202126   0.29351572    2250.0203   0.89332528    13.103746    13.103746    13.103746 
  143000   -1.6611753   0.46453308   -1.1966422    1.0484155   0.30984287    2245.3703   0.89517529    13.094713    13.094713    13.094713 
  144000   -1.6641687   0.45396012   -1.2102086   0.96174467   0.30279072    2259.1854   0.88970122    13.121514    13.121514    13.121514 
  145000    -1.670483   0.46308745   -1.2073956   0.92310694   0.30887864    2255.9261   0.89098663    13.115201    13.115201    13.115201 
  146000    -1.666516   0.47587322   -1.1906428    1.0369928   0.31740673    2243.3093   0.89599773    13.090705    13.090705    13.090705 
  147000   -1.6774678    0.4357965   -1.2416713   0.92162415   0.29067562      2249.98   0.89334129    13.103668    13.103668    13.103668 
  148000   -1.6539595     0.462382   -1.1915775   0.98926117    0.3084081    2256.8961   0.89060369    13.117081    13.117081    13.117081 
  149000   -1.6609675   0.45843836   -1.2025291   0.96749579    0.3057777    2253.7411   0.89185045    13.110965    13.110965    13.110965 
  150000   -1.6673702   0.44348933   -1.2238809   0.99997394   0.29580672    2248.8407   0.89379385    13.101456    13.101456    13.101456 
  151000   -1.6752075   0.46118819   -1.2140193    1.0466209   0.30761183    2237.1937   0.89844701    13.078799    13.078799    13.078799 
  152000   -1.6665566   0.43882811   -1.2277285    1.0052583   0.29269769    2245.6745   0.89505403    13.095305    13.095305    13.095305 
  153000   -1.6683074   0.44909544    -1.219212   0.92458304   0.29954599     2255.994   0.89095981    13.115333    13.115333    13.115333 
  154000   -1.6646748   0.43600022   -1.2286746    1.0202685    0.2908115    2246.9022   0.89456499     13.09769     13.09769     13.09769 
  155000   -1.6492279   0.45343566   -1.1957923   0.95566286   0.30244091    2269.8494    0.8855213    13.142128    13.142128    13.142128 
  156000   -1.6553783   0.44463063   -1.2107477    1.1055316   0.29656797    2238.0695   0.89809542    13.080505    13.080505    13.080505 
  157000   -1.6594992   0.44809864   -1.2114006   0.99654556   0.29888112    2252.3667   0.89239465      13.1083      13.1083      13.1083 
  158000   -1.6503159   0.44264961   -1.2076663     1.041974   0.29524663    2254.1478   0.89168955    13.111754    13.111754    13.111754 
  159000   -1.6750063   0.45113374   -1.2238726    1.0253381   0.30090553    2236.1713   0.89885778    13.076806    13.076806    13.076806 
  160000    -1.668696   0.45071325   -1.2179827   0.97713676   0.30062507    2251.6186   0.89269116    13.106848    13.106848    13.106848 
  161000   -1.6731616   0.46336047   -1.2098011   0.96979717   0.30906074    2248.8036   0.89380862    13.101384    13.101384    13.101384 
  162000   -1.6541739   0.45635638   -1.1978175     1.048437   0.30438902     2250.829   0.89300433    13.105316    13.105316    13.105316 
  163000   -1.6743477   0.43965313   -1.2346946   0.99405658   0.29324798    2241.8873   0.89656603    13.087939    13.087939    13.087939 
  164000   -1.6618013   0.45701263   -1.2047886    1.0800615   0.30482674    2236.2354   0.89883201    13.076931    13.076931    13.076931 
  165000   -1.6671848   0.43230218   -1.2348826   0.98560559   0.28834491    2249.0965   0.89369218    13.101953    13.101953    13.101953 
  166000    -1.658547   0.45071786   -1.2078291    1.0308828   0.30062814     2252.288   0.89242584    13.108147    13.108147    13.108147 
  167000   -1.6577659   0.43772207   -1.2200439   0.99300199   0.29195997    2254.7478   0.89145223    13.112917    13.112917    13.112917 
  168000   -1.6641274   0.44376633   -1.2203611    1.0321234   0.29599148     2244.353   0.89558104    13.092735    13.092735    13.092735 
  169000   -1.6668879   0.44104594   -1.2258419    1.0217382   0.29417698    2244.7528   0.89542156    13.093513    13.093513    13.093513 
  170000   -1.6653541   0.46116189   -1.2041922    1.0363738   0.30759429    2243.6563   0.89585914     13.09138     13.09138     13.09138 
  171000   -1.6750815   0.44553315   -1.2295484   0.90749685   0.29716995    2254.5152   0.89154421    13.112466    13.112466    13.112466 
  172000   -1.6746392    0.4646764   -1.2099628   0.99819755   0.30993847    2242.9378   0.89614613    13.089983    13.089983    13.089983 
  173000   -1.6635861   0.45055863   -1.2130274   0.97818197   0.30052193    2255.0809   0.89132056    13.113563    13.113563    13.113563 
  174000   -1.6682485    0.4531607   -1.2150878    1.0613882   0.30225751    2235.5035    0.8991263    13.075504    13.075504    13.075504 
  175000   -1.6681934   0.44693988   -1.2212535   0.88198516   0.29810824     2266.311   0.88690388    13.135295    13.135295    13.135295 
  176000   -1.6627322    0.4661235   -1.1966087    1.0187197   0.31090368    2251.8365   0.89260479    13.107271    13.107271    13.107271 
  177000   -1.6783103   0.45689526    -1.221415    1.0062716   0.30474845     2239.777   0.89741077    13.083831    13.083831    13.083831 
  178000   -1.6717844   0.44919227   -1.2225921    0.9153094   0.29961058    2256.3744    0.8908096     13.11607     13.11607     13.11607 
  179000   -1.6739763    0.4399825   -1.2339938    1.0025132   0.29346767    2239.5243   0.89751202    13.083339    13.083339    13.083339 
  180000   -1.6560884   0.46668128   -1.1894071    1.0338509   0.31127571    2252.8355   0.89220897    13.109209    13.109209    13.109209 
  181000   -1.6536669   0.43564737   -1.2180195    1.0050037   0.29057615    2255.3958   0.89119612    13.114173    13.114173    13.114173 
  182000   -1.6622176   0.46397041   -1.1982472    1.0365054   0.30946757    2247.2835   0.89441318    13.098431    13.098431    13.098431 
  183000    -1.678036   0.46292868   -1.2151074   0.91864901   0.30877274    2250.8281   0.89300465    13.105314    13.105314    13.105314 
  184000   -1.6736536   0.45121406   -1.2224395   0.96992874    0.3009591     2244.815   0.89539673    13.093634    13.093634    13.093634 
  185000   -1.6607225    0.4418794   -1.2188431   0.97030625    0.2947329    2256.4692    0.8907722    13.116253    13.116253    13.116253 
  186000   -1.6570075   0.45206488   -1.2049426    1.0440325    0.3015266    2247.8583   0.89418447    13.099548    13.099548    13.099548 
  187000   -1.6705989   0.45342742   -1.2171715     1.031138   0.30243541    2237.0805   0.89849248    13.078578    13.078578    13.078578 
  188000   -1.6756096   0.44953293   -1.2260766   0.88778475   0.29983779    2257.8997   0.89020785    13.119025    13.119025    13.119025 
  189000    -1.677108   0.45298567   -1.2241224    1.0047621   0.30214076    2238.9801   0.89773018    13.082279    13.082279    13.082279 
  190000   -1.6575707   0.45301364   -1.2045571   0.96547762   0.30215942    2259.9237   0.88941056    13.122943    13.122943    13.122943 
  191000   -1.6790435   0.46642498   -1.2126186   0.98586417   0.31110476    2242.1384   0.89646561    13.088428    13.088428    13.088428 
  192000   -1.6710847   0.44390604   -1.2271786   0.98681684   0.29608466    2245.8021   0.89500317    13.095553    13.095553    13.095553 
  193000    -1.658225   0.45595676   -1.2022683   0.96702333   0.30412248    2260.8117   0.88906122    13.124662    13.124662    13.124662 
  194000   -1.6477501   0.46736176   -1.1803884   0.94393549    0.3117296     2273.619   0.88405313    13.149399    13.149399    13.149399 
  195000   -1.6664776   0.45545663   -1.2110209    1.0727796    0.3037889    2235.0126    0.8993238    13.074547    13.074547    13.074547 
  196000   -1.6669699   0.44955333   -1.2174166   0.92301742    0.2998514    2256.7522    0.8906605    13.116802    13.116802    13.116802 
  197000   -1.6577849   0.44280981   -1.2149751     1.099635   0.29535348    2239.5531   0.89750047    13.083395    13.083395    13.083395 
  198000   -1.6582993   0.45273466   -1.2055646    1.0743698   0.30197334    2243.5174   0.89591462     13.09111     13.09111     13.09111 
  199000   -1.6760948   0.44502304   -1.2310718   0.93384394    0.2968297    2249.6129   0.89348706    13.102955    13.102955    13.102955 
  200000   -1.6715983   0.45190677   -1.2196915   0.93554662   0.30142114    2252.7108   0.89225835    13.108967    13.108967    13.108967 
  201000   -1.6872731   0.45363975   -1.2336334   0.98606867   0.30257704    2233.0111   0.90012988    13.070643    13.070643    13.070643 
  202000   -1.6763523   0.44847681   -1.2278755   0.99093426   0.29913336    2244.3408    0.8955859    13.092712    13.092712    13.092712 
  203000   -1.6727386   0.46772894   -1.2050097    1.0514323    0.3119745    2235.3769   0.89917722    13.075258    13.075258    13.075258 
  204000   -1.6645977   0.44481455   -1.2197831   0.95493641   0.29669064    2253.9471   0.89176894    13.111365    13.111365    13.111365 
  205000   -1.6769894   0.45202394   -1.2249654   0.99117775   0.30149929      2242.71   0.89623715     13.08954     13.08954     13.08954 
  206000   -1.6699538   0.45606743   -1.2138864    1.1011114   0.30419629     2230.099   0.90130529    13.064959    13.064959    13.064959 
  207000   -1.6656237   0.43733462   -1.2282891   0.95398774   0.29170154    2255.8186   0.89102911    13.114993    13.114993    13.114993 
  208000   -1.6718848   0.45292417   -1.2189607    1.1019371   0.30209974    2229.8183   0.90141874    13.064411    13.064411    13.064411 
  209000   -1.6726576   0.45282959    -1.219828   0.92683733   0.30203666    2255.5138   0.89114951    13.114402    13.114402    13.114402 
  210000   -1.6702727   0.44624012   -1.2240326    1.0243954   0.29764149    2245.0895   0.89528727    13.094167    13.094167    13.094167 
  211000   -1.6803457   0.43449656   -1.2458492    0.9583287   0.28980855    2243.7404   0.89582557    13.091544    13.091544    13.091544 
  212000   -1.6694369   0.45621462   -1.2132223      1.08399   0.30429447    2234.1143    0.8996854    13.072795    13.072795    13.072795 
  213000   -1.6723181   0.44292587   -1.2293923   0.94775938   0.29543089    2249.6952   0.89345438    13.103115    13.103115    13.103115 
  214000   -1.6508754   0.45135118   -1.1995242    1.0431425   0.30105056    2250.3563    0.8931919    13.104399    13.104399    13.104399 
  215000   -1.6771583   0.44091557   -1.2362427    1.0253079   0.29409003    2233.9125   0.89976667    13.072402    13.072402    13.072402 
  216000   -1.6671672   0.44996182   -1.2172053    1.0212903   0.30012386     2242.954   0.89613964    13.090014    13.090014    13.090014 
  217000   -1.6664919   0.45428816   -1.2122037   0.98962133   0.30300952    2246.8265   0.89459509    13.097543    13.097543    13.097543 
  218000   -1.6671285    0.4434392   -1.2236893    1.0587356   0.29577329    2237.2441   0.89842679    13.078897    13.078897    13.078897 
  219000   -1.6805043   0.45216178   -1.2283425   0.98047773   0.30159123    2236.2561    0.8988237    13.076972    13.076972    13.076972 
  220000   -1.6594333   0.44857494   -1.2108583    1.0809942   0.29919882    2240.8147    0.8969952    13.085851    13.085851    13.085851 
  221000   -1.6725113   0.46094006   -1.2115713   0.89649517   0.30744633    2263.6131   0.88796094    13.130081    13.130081    13.130081 
  222000    -1.656311   0.46164887   -1.1946622   0.94346151   0.30791911    2269.2888   0.88574006    13.141046    13.141046    13.141046 
  223000   -1.6597851   0.43343093   -1.2263541    0.9688801   0.28909778    2260.2586   0.88927876    13.123592    13.123592    13.123592 
  224000   -1.6802098   0.47018395   -1.2100258    1.0577145   0.31361199    2232.4771   0.90034517    13.069601    13.069601    13.069601 
  225000    -1.671142    0.4430992   -1.2280428   0.97615146    0.2955465    2248.3769   0.89397825    13.100555    13.100555    13.100555 
  226000   -1.6665813   0.44757007   -1.2190113    1.0026658   0.29852857    2247.8127   0.89420263    13.099459    13.099459    13.099459 
  227000   -1.6606786   0.45191922   -1.2087594    1.0405444   0.30142945    2247.1856   0.89445217    13.098241    13.098241    13.098241 
  228000   -1.6664799   0.45167285    -1.214807    1.0017991   0.30126512    2246.2763   0.89481423    13.096474    13.096474    13.096474 
  229000   -1.6756835   0.45056813   -1.2251154    1.0000929   0.30052827    2240.7469   0.89702232    13.085719    13.085719    13.085719 
  230000   -1.6681552   0.44516305   -1.2229922   0.87983604   0.29692309    2262.3653   0.88845067    13.127668    13.127668    13.127668 
  231000   -1.6720069   0.45833485    -1.213672    1.0542045   0.30570866    2233.5989   0.89989301     13.07179     13.07179     13.07179 
  232000   -1.6577119    0.4411168   -1.2165951   0.97988259   0.29422425    2258.4291   0.88999916     13.12005     13.12005     13.12005 
  233000   -1.6710088   0.44229075   -1.2287181   0.95107091   0.29500727    2248.1662   0.89406202    13.100146    13.100146    13.100146 
  234000   -1.6752959   0.44038684    -1.234909   0.96300145   0.29373737    2244.5439   0.89550487    13.093107    13.093107    13.093107 
  235000   -1.6708838    0.4473787   -1.2235051    1.0393554   0.29840092     2237.772   0.89821483    13.079926    13.079926    13.079926 
  236000     -1.68118   0.44681483   -1.2343652   0.98262051   0.29802482     2238.383   0.89796964    13.081116    13.081116    13.081116 
  237000   -1.6655959   0.44058654   -1.2250094     1.047973   0.29387056    2239.6714   0.89745308    13.083625    13.083625    13.083625 
  238000   -1.6687474   0.44368374   -1.2250636    1.0248174   0.29593639    2241.6406   0.89666471    13.087459    13.087459    13.087459 
  239000   -1.6617175    0.4585978   -1.2031197    1.0339175   0.30588405    2243.6125   0.89587661    13.091295    13.091295    13.091295 
  240000    -1.673713   0.43703673   -1.2366762    1.0520438   0.29150285    2230.8989   0.90098211    13.066521    13.066521    13.066521 
  241000   -1.6656114    0.4508894    -1.214722    0.9688487   0.30074255    2250.7862   0.89302129    13.105233    13.105233    13.105233 
  242000   -1.6771927   0.44410596   -1.2330867    1.0051012   0.29621801     2235.674   0.89905773    13.075837    13.075837    13.075837 
  243000   -1.6667036   0.47285513   -1.1938485   0.98819124   0.31539367    2251.5261   0.89272782    13.106669    13.106669    13.106669 
  244000   -1.6733977   0.44751227   -1.2258854   0.95270089   0.29849002    2251.1796   0.89286524    13.105997    13.105997    13.105997 
  245000   -1.6730897   0.44760008   -1.2254896   0.96253141   0.29854858    2249.9491   0.89335354    13.103608    13.103608    13.103608 
  246000    -1.659835   0.44543464   -1.2144004    1.0915376   0.29710424    2238.9591   0.89773862    13.082238    13.082238    13.082238 
  247000   -1.6692805   0.44851875   -1.2207617    1.0616434   0.29916133    2235.0991   0.89928897    13.074716    13.074716    13.074716 
  248000   -1.6697362   0.45507091   -1.2146653    1.0233946   0.30353161    2241.4656    0.8967347    13.087118    13.087118    13.087118 
  249000   -1.6652354   0.46186932   -1.2033661    1.0452389   0.30806615    2243.9594   0.89573814     13.09197     13.09197     13.09197 
  250000   -1.6694617   0.44442895   -1.2250328     1.030569   0.29643345    2239.2287   0.89763052    13.082763    13.082763    13.082763 
  251000   -1.6699981    0.4509112   -1.2190869     1.019816    0.3007571    2245.0903   0.89528692    13.094169    13.094169    13.094169 
  252000    -1.662923   0.43215635   -1.2307666    1.0427922   0.28824764    2243.6206   0.89587339    13.091311    13.091311    13.091311 
  253000   -1.6749511   0.44803641   -1.2269147   0.93368514   0.29883962    2251.1926   0.89286006    13.106022    13.106022    13.106022 
  254000   -1.6758784   0.44989974   -1.2259786    1.0200583   0.30008245    2238.5825   0.89788963    13.081505    13.081505    13.081505 
  255000   -1.6568881   0.46134585   -1.1955423   0.98458044   0.30771699    2257.8576   0.89022443    13.118943    13.118943    13.118943 
  256000   -1.6642122   0.45385101   -1.2103611   0.97853071   0.30271795    2254.7064   0.89146863    13.112837    13.112837    13.112837 
  257000   -1.6529558   0.45841395   -1.1945418    1.0297876   0.30576142    2255.8735   0.89100743    13.115099    13.115099    13.115099 
  258000   -1.6605141   0.45330919   -1.2072049   0.96061256   0.30235655    2256.3508   0.89081895    13.116024    13.116024    13.116024 
  259000   -1.6761221   0.45810009   -1.2180221    1.0188934   0.30555208    2236.7518   0.89862453    13.077938    13.077938    13.077938 
  260000   -1.6610506   0.43821926   -1.2228313   0.95316963   0.29229159    2259.6394   0.88952246    13.122393    13.122393    13.122393 
  261000   -1.6563138   0.45221206   -1.2041018    1.0501342   0.30162477    2246.4812   0.89473263    13.096872    13.096872    13.096872 
  262000   -1.6699134    0.4527898   -1.2171236    1.0029469   0.30201012    2245.7423   0.89502702    13.095436    13.095436    13.095436 
  263000   -1.6690458   0.44751393   -1.2215319    0.9502364   0.29849112    2255.8736   0.89100736    13.115099    13.115099    13.115099 
  264000   -1.6565679   0.45045983   -1.2061081    1.0394228   0.30045603    2251.2224   0.89284827     13.10608     13.10608     13.10608 
  265000   -1.6820914   0.43799017   -1.2441012   0.96941143   0.29213879    2240.4368    0.8971465    13.085116    13.085116    13.085116 
  266000   -1.6675754   0.44587964   -1.2216958    1.0458127   0.29740106    2238.8602   0.89777826    13.082046    13.082046    13.082046 
  267000   -1.6612447   0.43539762   -1.2258471    1.0062086   0.29040956    2248.1607   0.89406419    13.100135    13.100135    13.100135 
  268000   -1.6668084   0.44893775   -1.2178706    1.0090464   0.29944081    2248.1675   0.89406148    13.100149    13.100149    13.100149 
  269000   -1.6709602   0.45282354   -1.2181367    1.0068643   0.30203262    2241.7327   0.89662787    13.087638    13.087638    13.087638 
  270000   -1.6653986   0.45068734   -1.2147112    0.9759264   0.30060778    2252.6531   0.89228119    13.108855    13.108855    13.108855 
  271000   -1.6763278   0.45885314   -1.2174747    1.0108928   0.30605436    2237.6921    0.8982469     13.07977     13.07977     13.07977 
  272000   -1.6572715   0.43577593   -1.2214956   0.92084726    0.2906619    2261.9113   0.88862903    13.126789    13.126789    13.126789 
  273000   -1.6648345   0.45288185   -1.2119527    1.0167363   0.30207152    2245.5259   0.89511327    13.095016    13.095016    13.095016 
  274000   -1.6669149   0.44392435   -1.2229905   0.94369274   0.29609688    2255.1458   0.89129491    13.113689    13.113689    13.113689 
  275000   -1.6568895   0.44101121   -1.2158783    1.0714224   0.29415382    2240.8811    0.8969686    13.085981    13.085981    13.085981 
  276000   -1.6677179   0.44270374   -1.2250142    0.9598673   0.29528273    2250.8961   0.89297768    13.105446    13.105446    13.105446 
  277000   -1.6513729   0.44339682   -1.2079761    1.1035305   0.29574502    2242.8833   0.89616788    13.089877    13.089877    13.089877 
  278000   -1.6684767   0.44468341   -1.2237933   0.92832432   0.29660317    2259.7775    0.8894681     13.12266     13.12266     13.12266 
  279000   -1.6758771   0.43946423   -1.2364129   0.95643001   0.29312198    2247.4073   0.89436391    13.098672    13.098672    13.098672 
  280000   -1.6680603   0.46342249   -1.2046378    1.0630846   0.30910211     2237.956   0.89814096    13.080284    13.080284    13.080284 
  281000   -1.6626833    0.4544759   -1.2082074    1.0194762   0.30313475    2250.8197     0.893008    13.105298    13.105298    13.105298 
  282000   -1.6942285   0.44437848     -1.24985   0.93869989   0.29639978    2234.6827   0.89945654    13.073904    13.073904    13.073904 
  283000   -1.6545987    0.4507257    -1.203873    1.0175055   0.30063337    2256.8809   0.89060967    13.117051    13.117051    13.117051 
  284000   -1.6681739   0.45235597   -1.2158179   0.97982079   0.30172076    2251.8067   0.89261658    13.107213    13.107213    13.107213 
  285000   -1.6615304    0.4369397   -1.2245907    1.0075124   0.29143812    2251.4108   0.89277356    13.106445    13.106445    13.106445 
  286000   -1.6604712   0.43933361   -1.2211376    1.0826837   0.29303486    2238.6237   0.89787311    13.081585    13.081585    13.081585 
  287000    -1.661495   0.44627714   -1.2152179    1.0167191   0.29766619     2250.333   0.89320114    13.104353    13.104353    13.104353 
  288000   -1.6652647   0.45817651   -1.2070882   0.96754652   0.30560305    2254.8362    0.8914173    13.113089    13.113089    13.113089 
  289000   -1.6708631   0.46187454   -1.2089886   0.98926829   0.30806963    2246.4424   0.89474806    13.096797    13.096797    13.096797 
  290000   -1.6782263   0.45291649   -1.2253098   0.96501556   0.30209462    2244.0221    0.8957131    13.092092    13.092092    13.092092 
  291000    -1.673029   0.43697621   -1.2360528    1.0062165   0.29146248    2241.3795   0.89676917    13.086951    13.086951    13.086951 
  292000   -1.6529924    0.4552166   -1.1977758    1.1088931   0.30362879    2242.2234   0.89643166    13.088593    13.088593    13.088593 
  293000   -1.6737825   0.43356846    -1.240214    1.0067146   0.28918951    2238.2018   0.89804236    13.080763    13.080763    13.080763 
  294000   -1.6591431   0.44977567   -1.2093674   0.92900698    0.2999997    2267.3016   0.88651639    13.137209    13.137209    13.137209 
  295000   -1.6489396   0.45372119   -1.1952184   0.95954171   0.30263136     2268.294    0.8861285    13.139125    13.139125    13.139125 
  296000     -1.66936   0.45124118   -1.2181189    1.0151563   0.30097719    2243.2135   0.89603596    13.090519    13.090519    13.090519 
  297000   -1.6828327   0.45120242   -1.2316303   0.93186773   0.30095134    2245.0872   0.89528817    13.094163    13.094163    13.094163 
  298000   -1.6555332   0.45095006   -1.2045832    1.0446133   0.30078302    2250.0839   0.89330001     13.10387     13.10387     13.10387 
  299000   -1.6694246   0.45714014   -1.2122845   0.97884517   0.30491179    2248.4418   0.89395244    13.100681    13.100681    13.100681 
  300000   -1.6669157   0.44710488   -1.2198108   0.97769508   0.29821829    2251.3309   0.89280523     13.10629     13.10629     13.10629 
  301000   -1.6739408    0.4427354   -1.2312054   0.90220094   0.29530385    2251.2913   0.89282092    13.106213    13.106213    13.106213 
  302000   -1.6624521   0.44729304   -1.2151591    1.0342583   0.29834379    2243.9877   0.89572682    13.092025    13.092025    13.092025 
  303000   -1.6628214   0.45188785   -1.2109335    1.0007604   0.30140852    2251.2844   0.89282368      13.1062      13.1062      13.1062 
  304000   -1.6675891    0.4386347   -1.2289544   0.94494554   0.29256869    2253.9479   0.89176861    13.111367    13.111367    13.111367 
  305000   -1.6755098   0.46114127   -1.2143685    1.0477664   0.30758054    2236.0716   0.89889785    13.076612    13.076612    13.076612 
  306000   -1.6693438   0.44853036   -1.2208135   0.97604403   0.29916908    2248.9079   0.89376716    13.101586    13.101586    13.101586 
  307000   -1.6722898   0.45234757   -1.2199422   0.99358499   0.30171516    2243.8964   0.89576328    13.091847    13.091847    13.091847 
  308000   -1.6746376   0.45122624   -1.2234114   0.98902577   0.30096723    2243.4314   0.89594893    13.090943    13.090943    13.090943 
  309000   -1.6761979   0.44977622   -1.2264217   0.97398386   0.30000007    2241.1875   0.89684599    13.086577    13.086577    13.086577 
  310000   -1.6691502   0.45328909   -1.2158611    1.0035376   0.30234315    2246.2932   0.89480749    13.096507    13.096507    13.096507 
  311000   -1.6766835   0.44647529   -1.2302082   0.95327344   0.29779835     2247.257   0.89442373     13.09838     13.09838     13.09838 
  312000   -1.6602302   0.44162107   -1.2186092   0.91454355   0.29456059    2264.8733   0.88746687    13.132517    13.132517    13.132517 
  313000   -1.6665958   0.44383119   -1.2227646    1.0057563   0.29603474    2245.4598   0.89513962    13.094887    13.094887    13.094887 
  314000   -1.6786747   0.44424536   -1.2344293    0.9699561   0.29631099    2243.9384    0.8957465    13.091929    13.091929    13.091929 
  315000   -1.6722209    0.4471175   -1.2251034   0.97177408   0.29822671    2247.6422   0.89427046    13.099128    13.099128    13.099128 
  316000   -1.6698045   0.45721654   -1.2125879   0.96782915   0.30496275    2252.0704   0.89251205    13.107725    13.107725    13.107725 
  317000    -1.666332   0.45935549   -1.2069765   0.97021435   0.30638943    2253.1773    0.8920736    13.109872    13.109872    13.109872 
  318000    -1.662898   0.45630276   -1.2065952    1.0396928   0.30435326    2243.1772   0.89605047    13.090449    13.090449    13.090449 
  319000   -1.6714529   0.44715146   -1.2243014   0.97715099   0.29824935    2247.4459   0.89434857    13.098747    13.098747    13.098747 
  320000   -1.6680684   0.43982355   -1.2282449    1.0591336   0.29336165    2238.7174   0.89783552    13.081767    13.081767    13.081767 
  321000   -1.6873461   0.45423034   -1.2331158    1.0347985   0.30297096    2227.5046   0.90235502    13.059891    13.059891    13.059891 
  322000   -1.6703116   0.44758067   -1.2227309   0.95372438   0.29853564    2251.8887   0.89258409    13.107372    13.107372    13.107372 
  323000   -1.6651815   0.45905458    -1.206127   0.91530027   0.30618872    2262.9214   0.88823235    13.128743    13.128743    13.128743 
  324000   -1.6553777   0.47293238   -1.1824453      1.03256   0.31544519    2253.7431   0.89184965    13.110969    13.110969    13.110969 
  325000   -1.6582414   0.46163743   -1.1966039    1.0222627   0.30791148    2255.0464   0.89133422    13.113496    13.113496    13.113496 
  326000   -1.6583315   0.45621977   -1.2021117    1.0004772   0.30429791    2256.7719    0.8906527     13.11684     13.11684     13.11684 
  327000   -1.6636205   0.45447224   -1.2091483      1.01513    0.3031323    2248.2357   0.89403439    13.100281    13.100281    13.100281 
  328000   -1.6721272   0.44743351   -1.2246937   0.99478988   0.29843748    2242.7738   0.89621167    13.089664    13.089664    13.089664 
  329000   -1.6756397   0.45426748   -1.2213722    1.0763972   0.30299573     2230.651   0.90108223    13.066037    13.066037    13.066037 
  330000    -1.670345   0.44968876   -1.2206563   0.92174219   0.29994173    2258.4113   0.89000616    13.120016    13.120016    13.120016 
  331000   -1.6663675   0.46352501   -1.2028425    1.0605467   0.30917049    2241.1731   0.89685173    13.086549    13.086549    13.086549 
  332000   -1.6607238   0.44762957   -1.2130942   0.94980801   0.29856826    2259.3567   0.88963376    13.121846    13.121846    13.121846 
  333000   -1.6756117   0.44718452   -1.2284272    1.0395949    0.2982714    2233.7407   0.89983586    13.072067    13.072067    13.072067 
  334000    -1.672478   0.44846187   -1.2240161   0.94018369    0.2991234    2250.6129   0.89309007    13.104897    13.104897    13.104897 
  335000   -1.6674418   0.43581118   -1.2316306    0.9204937    0.2906854    2258.2981   0.89005078    13.119796    13.119796    13.119796 
  336000   -1.6699154   0.46134576   -1.2085697    1.0010756   0.30771693    2243.2525   0.89602041    13.090595    13.090595    13.090595 
  337000   -1.6658968   0.45265513   -1.2132417   0.95527858    0.3019203    2255.5068   0.89115226    13.114389    13.114389    13.114389 
  338000   -1.6658692   0.46434578   -1.2015234    0.9541509   0.30971794    2255.0488   0.89133326    13.113501    13.113501    13.113501 
  339000   -1.6678961   0.45436752   -1.2135286   0.99242754   0.30306245    2248.9762   0.89374001    13.101719    13.101719    13.101719 
  340000   -1.6681279   0.44336658   -1.2247613   0.96278633   0.29572485    2253.1836   0.89207112    13.109884    13.109884    13.109884 
  341000   -1.6685678   0.44710135   -1.2214664      1.02167   0.29821594    2242.3065   0.89639843    13.088755    13.088755    13.088755 
  342000   -1.6750281   0.45145637   -1.2235717    1.0013783   0.30112072    2241.8372   0.89658605    13.087842    13.087842    13.087842 
  343000   -1.6676615   0.46701952    -1.200642    0.9814754   0.31150132    2250.0877   0.89329853    13.103877    13.103877    13.103877 
  344000   -1.6734301   0.45976022   -1.2136699   0.94665971   0.30665938    2252.3426   0.89240419    13.108253    13.108253    13.108253 
  345000   -1.6565832   0.44397587   -1.2126074    1.0998749   0.29613124    2237.6689   0.89825623    13.079725    13.079725    13.079725 
  346000   -1.6580729   0.44136161   -1.2167113    0.9497916   0.29438753    2259.9914   0.88938391    13.123075    13.123075    13.123075 
  347000    -1.679995   0.45622524   -1.2237697    1.0024884   0.30430155     2238.662   0.89785773     13.08166     13.08166     13.08166 
  348000   -1.6561187   0.45756168   -1.1985571    1.0139535   0.30519296    2256.8195   0.89063392    13.116932    13.116932    13.116932 
  349000   -1.6717451    0.4520379   -1.2197072    1.0040295   0.30150861    2243.4462   0.89594303    13.090972    13.090972    13.090972 
  350000   -1.6743474   0.45376124   -1.2205862     1.038216   0.30265807    2234.9215   0.89936044     13.07437     13.07437     13.07437 
  351000   -1.6637336   0.44250267    -1.221231   0.94555293   0.29514862    2259.7432   0.88948162    13.122594    13.122594    13.122594 
  352000   -1.6763685   0.44047971   -1.2358888   0.96237908   0.29379931    2244.4966   0.89552373    13.093015    13.093015    13.093015 
  353000   -1.6752442   0.43934173   -1.2359024   0.98145363   0.29304028    2246.8503   0.89458565     13.09759     13.09759     13.09759 
  354000   -1.6691241   0.44462544   -1.2244986   0.94557363    0.2965645    2255.4105   0.89119032    13.114202    13.114202    13.114202 
  355000   -1.6659169   0.45902877   -1.2068881    1.0628202   0.30617151    2237.5749   0.89829396    13.079542    13.079542    13.079542 
  356000   -1.6558892   0.43782913     -1.21806     1.012162   0.29203138    2251.4301   0.89276589    13.106483    13.106483    13.106483 
  357000   -1.6421907   0.44252444   -1.1996663    1.0111326   0.29516314    2271.3062   0.88495335    13.144939    13.144939    13.144939 
  358000   -1.6581578   0.44814664   -1.2100111   0.93236191   0.29891314    2264.6603   0.88755034    13.132105    13.132105    13.132105 
  359000   -1.6822679   0.44301034   -1.2392576   0.92485006   0.29548724     2244.376   0.89557186     13.09278     13.09278     13.09278 
  360000   -1.6755647   0.46973302   -1.2058317   0.95046564   0.31331122    2251.0477   0.89291756    13.105741    13.105741    13.105741 
  361000   -1.6669819   0.45155072   -1.2154311     0.966204   0.30118366    2251.0474   0.89291766     13.10574     13.10574     13.10574 
  362000   -1.6819084   0.44483296   -1.2370754    1.0426543   0.29670292    2228.3295   0.90202101    13.061502    13.061502    13.061502 
  363000   -1.6642091   0.44586264   -1.2183465   0.99667527   0.29738971    2247.9562   0.89414552    13.099738    13.099738    13.099738 
  364000   -1.6648213   0.44268011   -1.2221412    1.0108082   0.29526697     2251.015   0.89293054    13.105677    13.105677    13.105677 
  365000   -1.6697209   0.47002929   -1.1996916   0.95134674   0.31350884    2255.6792   0.89108417    13.114723    13.114723    13.114723 
  366000   -1.6627908   0.44254315   -1.2202476   0.93870731   0.29517562    2258.3027   0.89004898    13.119805    13.119805    13.119805 
  367000   -1.6692238   0.45043713   -1.2187866   0.99325133    0.3004409    2248.8065   0.89380745     13.10139     13.10139     13.10139 
  368000   -1.6795568   0.44044722   -1.2391096    1.1088575   0.29377764    2218.9662   0.90582725    13.043182    13.043182    13.043182 
  369000   -1.6643982   0.45343699   -1.2109612    1.0923442   0.30244179    2233.7699    0.8998241    13.072124    13.072124    13.072124 
  370000   -1.6698369   0.45364555   -1.2161913   0.94079316   0.30258091    2253.5062   0.89194339     13.11051     13.11051     13.11051 
  371000   -1.6632358   0.44134149   -1.2218943    1.1134909   0.29437411    2229.0156   0.90174336    13.062843    13.062843    13.062843 
  372000   -1.6588497   0.46107481   -1.1977749    1.0122733   0.30753621    2252.2132   0.89245547    13.108002    13.108002    13.108002 
  373000   -1.6660927   0.45070576    -1.215387    1.0478682   0.30062007    2238.0166   0.89811667    13.080402    13.080402    13.080402 
  374000   -1.6590491   0.44530799   -1.2137411    1.0367212   0.29701977    2247.7466   0.89422892    13.099331    13.099331    13.099331 
  375000   -1.6752156   0.44087752    -1.234338     1.014025   0.29406464     2240.915   0.89695505    13.086046    13.086046    13.086046 
  376000   -1.6825413   0.44662276   -1.2359185    1.0105778   0.29789671     2233.907   0.89976887    13.072391    13.072391    13.072391 
  377000   -1.6808023   0.44101703   -1.2397852   0.98740603    0.2941577    2236.3103   0.89880192    13.077077    13.077077    13.077077 
  378000   -1.6655401   0.45188629   -1.2136538    1.0274329   0.30140748    2245.0554   0.89530083    13.094101    13.094101    13.094101 
  379000   -1.6745407   0.45199677   -1.2225439   0.94844475   0.30148117    2249.3933   0.89357427    13.102529    13.102529    13.102529 
  380000   -1.6744859   0.43595739   -1.2385285     1.009514   0.29078293    2240.1328   0.89726824    13.084524    13.084524    13.084524 
  381000   -1.6607506   0.45681691   -1.2039337    1.0974378   0.30469619    2238.2767   0.89801231    13.080909    13.080909    13.080909 
  382000   -1.6566566   0.44516433   -1.2114923    1.0121751   0.29692395    2254.7963   0.89143308    13.113011    13.113011    13.113011 
  383000   -1.6717581   0.45389508    -1.217863   0.99004294   0.30274734    2246.0616   0.89489976    13.096057    13.096057    13.096057 
  384000   -1.6526972   0.44947224   -1.2032249   0.98081784   0.29979731    2260.6015    0.8891439    13.124255    13.124255    13.124255 
  385000   -1.6567524   0.43988873   -1.2168637    0.9666826   0.29340513    2260.2453   0.88928401    13.123566    13.123566    13.123566 
  386000   -1.6734052   0.46217621    -1.211229    1.0418097   0.30827084    2236.3401   0.89878993    13.077135    13.077135    13.077135 
  387000   -1.6736447   0.45276767   -1.2208771   0.93853923   0.30199536    2253.6803    0.8918745    13.110848    13.110848    13.110848 
  388000   -1.6493507    0.4549745   -1.1943762   0.92912712   0.30346731    2270.7154   0.88518357    13.143799    13.143799    13.143799 
  389000   -1.6591851   0.45294337   -1.2062417    1.0752204   0.30211255    2242.9232   0.89615195    13.089954    13.089954    13.089954 
  390000    -1.663506   0.44414391   -1.2193621   0.92535885   0.29624332    2260.6994   0.88910539    13.124445    13.124445    13.124445 
  391000   -1.6700621   0.45944448   -1.2106176    1.0587513   0.30644878    2235.8685   0.89897952    13.076216    13.076216    13.076216 
  392000   -1.6811287   0.44741406   -1.2337147   0.95930713   0.29842451    2242.2338    0.8964275    13.088613    13.088613    13.088613 
  393000   -1.6640433   0.44354532    -1.220498   0.97242244   0.29584407    2253.0933   0.89210685    13.109709    13.109709    13.109709 
  394000   -1.6566458   0.47404672   -1.1825991    1.0290539   0.31618846    2255.6554   0.89109356    13.114677    13.114677    13.114677 
  395000   -1.6609156   0.45619987   -1.2047157   0.96666029   0.30428463    2257.6936   0.89028909    13.118626    13.118626    13.118626 
  396000   -1.6696735   0.44076344     -1.22891    1.0388643   0.29398856    2237.8725   0.89817451    13.080121    13.080121    13.080121 
  397000     -1.67501   0.44095267   -1.2340573   0.98708155   0.29411477    2244.6416   0.89546588    13.093297    13.093297    13.093297 
  398000   -1.6643572   0.44522454   -1.2191327   0.94839295    0.2969641    2255.3409   0.89121784    13.114067    13.114067    13.114067 
  399000   -1.6702591   0.45508546   -1.2151737   0.94884331   0.30354132    2252.4777   0.89235066    13.108515    13.108515    13.108515 
  400000   -1.6676978   0.47273937   -1.1949584     1.029117   0.31531646    2239.2003    0.8976419    13.082708    13.082708    13.082708 
  401000   -1.6745357   0.44621001   -1.2283257    0.9774349   0.29762141    2245.0212   0.89531448    13.094035    13.094035    13.094035 
  402000   -1.6675718   0.45126384    -1.216308   0.99369212   0.30099231    2248.0413    0.8941117    13.099903    13.099903    13.099903 
  403000   -1.6629905    0.4486323   -1.2143582    1.0233315   0.29923707    2245.0285   0.89531156    13.094049    13.094049    13.094049 
  404000   -1.6775336   0.45211673   -1.2254169    1.0153216   0.30156119    2238.3528   0.89798178    13.081057    13.081057    13.081057 
  405000   -1.6823373   0.45555898   -1.2267783   0.95938608   0.30385716    2244.1829   0.89564894    13.092404    13.092404    13.092404 
  406000   -1.6643729   0.45172235   -1.2126506      1.01249   0.30129813    2248.5753   0.89389936    13.100941    13.100941    13.100941 
  407000   -1.6602607    0.4467309   -1.2135298    1.0598362   0.29796884    2244.2352   0.89562806    13.092506    13.092506    13.092506 
  408000   -1.6684144   0.44393801   -1.2244764   0.93408172   0.29610599     2260.115   0.88933529    13.123314    13.123314    13.123314 
  409000   -1.6572402   0.45073924    -1.206501    1.0360765    0.3006424    2249.1685   0.89366361    13.102092    13.102092    13.102092 
  410000   -1.6656066   0.46156391   -1.2040427   0.97120694   0.30786244     2254.999   0.89135294    13.113404    13.113404    13.113404 
  411000    -1.668697   0.45109052   -1.2176065    1.0355459    0.3008767    2241.1372   0.89686611    13.086479    13.086479    13.086479 
  412000   -1.6744971   0.43539811    -1.239099   0.97377923   0.29040989    2244.0989   0.89568246    13.092241    13.092241    13.092241 
  413000   -1.6650931   0.45316943   -1.2119237   0.98803435   0.30226333    2250.8566   0.89299338     13.10537     13.10537     13.10537 
  414000   -1.6737153   0.45663598   -1.2170793    0.9870863   0.30457552    2244.9543   0.89534116    13.093904    13.093904    13.093904 
  415000   -1.6745982   0.44891191   -1.2256863   0.90139015   0.29942357    2257.2041   0.89048218    13.117677    13.117677    13.117677 
  416000     -1.65852   0.45894331   -1.1995767    1.1001858   0.30611451    2237.8321   0.89819069    13.080043    13.080043    13.080043 
  417000   -1.6658814   0.44131975   -1.2245616   0.97101831   0.29435962    2251.1187   0.89288938    13.105878    13.105878    13.105878 
  418000   -1.6754647   0.45345704   -1.2220077   0.99634053   0.30245517    2242.0998   0.89648106    13.088352    13.088352    13.088352 
  419000   -1.6748737    0.4555836   -1.2192901    1.0406117   0.30387358     2232.426   0.90036579    13.069502    13.069502    13.069502 
  420000   -1.6670657   0.44900663   -1.2180591   0.92357344   0.29948675    2258.3314   0.89003767    13.119861    13.119861    13.119861 
  421000   -1.6666706   0.45204409   -1.2146265   0.98390944   0.30151273    2252.8164   0.89221652    13.109172    13.109172    13.109172 
  422000   -1.6798487   0.45623016   -1.2236185   0.93441498   0.30430483    2245.7501   0.89502389    13.095451    13.095451    13.095451 
  423000     -1.64674   0.44396037   -1.2027796      1.08306    0.2961209    2253.0309   0.89213156    13.109588    13.109588    13.109588 
  424000   -1.6664185   0.44704169   -1.2193768    1.0403579   0.29817614    2246.8786   0.89457437    13.097645    13.097645    13.097645 
  425000   -1.6525333   0.46180585   -1.1907275    1.0007817   0.30802381    2257.7768   0.89025627    13.118787    13.118787    13.118787 
  426000   -1.6622797   0.44857588   -1.2137039     1.072184   0.29919944     2240.181   0.89724892    13.084618    13.084618    13.084618 
  427000   -1.6761707   0.44697471    -1.229196     1.046375   0.29813146     2230.834   0.90100832    13.066394    13.066394    13.066394 
  428000   -1.6573547   0.44233583   -1.2150189    1.0176602   0.29503734    2253.3058   0.89202274    13.110121    13.110121    13.110121 
  429000   -1.6695264   0.43680153   -1.2327249    1.0635967   0.29134597    2232.6014   0.90029506    13.069844    13.069844    13.069844 
  430000   -1.6711159   0.43682487   -1.2342911   0.96232055   0.29136154     2250.578   0.89310391    13.104829    13.104829    13.104829 
  431000   -1.6732485   0.44328084   -1.2299677   0.99287362   0.29566766    2241.9719   0.89653218    13.088104    13.088104    13.088104 
  432000   -1.6704823   0.45192001   -1.2185623    1.0128525   0.30142997    2240.4902   0.89712509     13.08522     13.08522     13.08522 
  433000   -1.6645626   0.43573803   -1.2288246    0.9664828   0.29063661    2252.3867   0.89238675    13.108339    13.108339    13.108339 
  434000   -1.6735337   0.44920604   -1.2243277    1.0223491   0.29961976    2236.6464   0.89866686    13.077732    13.077732    13.077732 
  435000    -1.671459    0.4433951   -1.2280639   0.99981384   0.29574387    2245.4835   0.89513015    13.094933    13.094933    13.094933 
  436000   -1.6810317   0.43996629   -1.2410654   0.94804672   0.29345686    2242.7866   0.89620651    13.089689    13.089689    13.089689 
  437000   -1.6499815   0.43943061   -1.2105509    1.0707825   0.29309956    2248.1081   0.89408511    13.100033    13.100033    13.100033 
  438000    -1.657549   0.45754499    -1.200004    1.0255282   0.30518183    2247.7514     0.894227     13.09934     13.09934     13.09934 
  439000   -1.6619867    0.4399113   -1.2220754    1.0912407   0.29342018    2238.7031   0.89784126     13.08174     13.08174     13.08174 
  440000   -1.6643399   0.45711448   -1.2072254   0.97326393   0.30489467    2253.4925   0.89194882    13.110483    13.110483    13.110483 
  441000   -1.6542909   0.45405077   -1.2002401    1.1028134   0.30285119    2240.5209   0.89711282    13.085279    13.085279    13.085279 
  442000   -1.6637558   0.44745492   -1.2163009    1.0167368   0.29845176    2243.8344   0.89578802    13.091727    13.091727    13.091727 
  443000   -1.6560291   0.43699825   -1.2190309    1.0047891   0.29147718     2257.099   0.89052362    13.117474    13.117474    13.117474 
  444000   -1.6636074   0.45468854   -1.2089189    1.0602817   0.30327658    2240.2815   0.89720868    13.084813    13.084813    13.084813 
  445000   -1.6818011   0.43666396   -1.2451371   0.97142549   0.29125421    2240.5167   0.89711451    13.085271    13.085271    13.085271 
  446000   -1.6619737    0.4508154   -1.2111583    1.0239866    0.3006932     2250.446   0.89315629    13.104573    13.104573    13.104573 
  447000   -1.6694313   0.46291314   -1.2065182    1.0019456   0.30876237    2245.7315   0.89503131    13.095415    13.095415    13.095415 
  448000   -1.6699003   0.44797391   -1.2219264   0.98632529   0.29879793      2248.66   0.89386567    13.101105    13.101105    13.101105 
  449000    -1.673619   0.45889935   -1.2147196     1.067519   0.30608518    2231.4165   0.90077313    13.067531    13.067531    13.067531 
  450000   -1.6768726   0.45450981   -1.2223628   0.90064508   0.30315737    2256.0085   0.89095409    13.115361    13.115361    13.115361 
  451000   -1.6588027    0.4502546   -1.2085481   0.93801779   0.30031915    2260.6932   0.88910782    13.124433    13.124433    13.124433 
  452000   -1.6650809   0.43622257   -1.2288584    1.0515945    0.2909598    2240.7321   0.89702826     13.08569     13.08569     13.08569 
  453000   -1.6604067   0.43927426   -1.2211325   0.97574624   0.29299527    2257.2312   0.89047149     13.11773     13.11773     13.11773 
  454000   -1.6735241   0.44690752   -1.2266166    1.0385751   0.29808665    2235.5644    0.8991018    13.075623    13.075623    13.075623 
  455000   -1.6507213   0.44257104   -1.2081503   0.97637734   0.29519422    2262.9893   0.88820571    13.128875    13.128875    13.128875 
  456000   -1.6768908   0.44737145   -1.2295194    1.0437493   0.29839609    2234.5259   0.89951965    13.073598    13.073598    13.073598 
  457000    -1.669847   0.45175709   -1.2180899   0.95837863   0.30132131    2252.8571    0.8922004    13.109251    13.109251    13.109251 
  458000    -1.663869   0.44809702    -1.215772    1.0734009   0.29888005     2238.454   0.89794116    13.081254    13.081254    13.081254 
  459000   -1.6676503   0.46985462   -1.1977957     1.060263   0.31339233    2240.5099   0.89711723    13.085258    13.085258    13.085258 
  460000   -1.6614646   0.43474475   -1.2267198   0.97714111    0.2899741    2254.5881   0.89151539    13.112608    13.112608    13.112608 
  461000   -1.6671213   0.45029907   -1.2168223   0.99378953   0.30034881    2248.0423    0.8941113    13.099905    13.099905    13.099905 
  462000    -1.666681   0.44077496   -1.2259061    1.0156649   0.29399624    2244.7659    0.8954163    13.093538    13.093538    13.093538 
  463000   -1.6712439   0.44516232   -1.2260816    1.0007174    0.2969226    2243.7976   0.89580271    13.091655    13.091655    13.091655 
  464000   -1.6602814   0.44445529   -1.2158261   0.97406026   0.29645102    2252.6519   0.89228169    13.108853    13.108853    13.108853 
  465000   -1.6744097    0.4535473   -1.2208624    1.0238427   0.30251537    2238.4745   0.89793296    13.081294    13.081294    13.081294 
  466000   -1.6695916   0.45063008   -1.2189615   0.97375735   0.30056959    2252.2564   0.89243834    13.108086    13.108086    13.108086 
  467000   -1.6645779   0.45852333   -1.2060546   0.99114487   0.30583437    2252.7859   0.89222859    13.109113    13.109113    13.109113 
  468000   -1.6745919    0.4452525   -1.2293394   0.90201672   0.29698275    2255.5353   0.89114099    13.114444    13.114444    13.114444 
  469000   -1.6773643   0.44571871   -1.2316456   0.98664201   0.29729372    2239.2124   0.89763706    13.082731    13.082731    13.082731 
  470000   -1.6679993   0.44099736   -1.2270019    1.0082885   0.29414458     2244.006   0.89571955     13.09206     13.09206     13.09206 
  471000   -1.6663036   0.45268477   -1.2136188    1.0307244   0.30194007    2244.4856   0.89552815    13.092993    13.092993    13.092993 
  472000   -1.6583832   0.43942501   -1.2189582    1.0648627   0.29309583    2241.4152   0.89675489     13.08702     13.08702     13.08702 
  473000   -1.6842695   0.44361444   -1.2406551   0.96142751   0.29589017    2236.1035   0.89888507    13.076674    13.076674    13.076674 
  474000   -1.6688057   0.46048407   -1.2083216     1.011967   0.30714219    2245.3347   0.89518948    13.094644    13.094644    13.094644 
  475000   -1.6669515   0.44946485   -1.2174866    1.0355701   0.29979238    2240.9091   0.89695741    13.086035    13.086035    13.086035 
  476000     -1.67294    0.4504451   -1.2224949    0.9439957   0.30044621    2253.0275   0.89213293    13.109582    13.109582    13.109582 
  477000   -1.6626901   0.46210066   -1.2005894    1.0841817   0.30822045    2237.6515    0.8982632    13.079691    13.079691    13.079691 
  478000   -1.6812738   0.45693176    -1.224342   0.92680195    0.3047728    2250.7508   0.89303532    13.105164    13.105164    13.105164 
  479000    -1.663727   0.44590973   -1.2178172    1.0097418   0.29742113    2250.7878   0.89302066    13.105236    13.105236    13.105236 
  480000   -1.6728853   0.44113719   -1.2317481    1.0435162   0.29423785    2233.2734   0.90002417    13.071155    13.071155    13.071155 
  481000   -1.6740945   0.44652165   -1.2275729    1.0187904   0.29782928    2238.6376   0.89786752    13.081612    13.081612    13.081612 
  482000   -1.6554471   0.45476923   -1.2006779    1.0063538   0.30333039    2254.5199   0.89154236    13.112476    13.112476    13.112476 
  483000    -1.669963     0.458138    -1.211825    1.0415653   0.30557736    2239.6825   0.89744863    13.083647    13.083647    13.083647 
  484000   -1.6700657   0.44488518   -1.2251805    1.0056226   0.29673775    2244.9857   0.89532863    13.093966    13.093966    13.093966 
  485000   -1.6761711   0.44819383   -1.2279773   0.99478284   0.29894462    2242.5368   0.89630637    13.089203    13.089203    13.089203 
  486000   -1.6606905   0.44348501   -1.2172055    1.0221852   0.29580384    2248.4091   0.89396541    13.100618    13.100618    13.100618 
  487000   -1.6676473   0.44438059   -1.2232667    1.0523487   0.29640119    2241.9727    0.8965319    13.088105    13.088105    13.088105 
  488000   -1.6653358   0.45816778    -1.207168    1.0369956   0.30559723    2243.6027   0.89588054    13.091276    13.091276    13.091276 
  489000   -1.6739228   0.43146238   -1.2424604    1.0666486   0.28778476    2231.4839   0.90074592    13.067663    13.067663    13.067663 
  490000   -1.6557166   0.44317327   -1.2125434   0.89165959   0.29559591    2272.3449   0.88454883    13.146942    13.146942    13.146942 
  491000   -1.6803682   0.44881452   -1.2315537   0.97773243   0.29935861    2241.5559   0.89669858    13.087294    13.087294    13.087294 
  492000   -1.6641137   0.46514457   -1.1989691     1.029505   0.31025073    2248.4459   0.89395081    13.100689    13.100689    13.100689 
  493000   -1.6611956   0.44734901   -1.2138466   0.94750641   0.29838112    2259.4002   0.88961663     13.12193     13.12193     13.12193 
  494000   -1.6686813   0.44387122   -1.2248101   0.97841231   0.29606144    2247.0133   0.89452074    13.097906    13.097906    13.097906 
  495000   -1.6733005   0.45373386   -1.2195666    1.0055924    0.3026398    2240.4869   0.89712643    13.085213    13.085213    13.085213 
  496000    -1.653917   0.44334965   -1.2105674    1.0158425   0.29571356    2254.1369   0.89169384    13.111733    13.111733    13.111733 
  497000   -1.6733573   0.43338777   -1.2399695    1.0159062     0.289069    2240.3168   0.89719455    13.084882    13.084882    13.084882 
  498000   -1.6717688   0.45313781    -1.218631   0.95521426   0.30224224    2248.8641   0.89378455    13.101501    13.101501    13.101501 
  499000   -1.6758531   0.45133639   -1.2245167     1.090555    0.3010407    2227.0868   0.90252431    13.059074    13.059074    13.059074 
  500000   -1.6752413   0.44704742   -1.2281938   0.89003265   0.29817996    2259.4749   0.88958722    13.122075    13.122075    13.122075 
  501000   -1.6610387   0.44618544   -1.2148532    1.0271717   0.29760502    2248.9458    0.8937521     13.10166     13.10166     13.10166 
  502000   -1.6758305   0.45617552    -1.219655    1.0310254   0.30426839    2232.3484   0.90039707     13.06935     13.06935     13.06935 
  503000   -1.6691215   0.44605092   -1.2230706   0.91798546    0.2975153    2256.6869   0.89068625    13.116675    13.116675    13.116675 
  504000   -1.6722202   0.44824836   -1.2239718    1.1109505   0.29898099    2225.4685   0.90318061     13.05591     13.05591     13.05591 
  505000   -1.6709321   0.46048561   -1.2104464    1.0110752   0.30714322    2246.8029   0.89460449    13.097498    13.097498    13.097498 
  506000   -1.6812557   0.44422009   -1.2370356   0.96977371   0.29629414    2240.3871    0.8971664    13.085019    13.085019    13.085019 
  507000   -1.6738006   0.46075257    -1.213048    1.0154294   0.30732128    2241.2086   0.89683754    13.086618    13.086618    13.086618 
  508000    -1.660728   0.44901454   -1.2117135   0.99500418   0.29949203    2254.1257   0.89169829    13.111711    13.111711    13.111711 
  509000   -1.6702493   0.45973447   -1.2105148   0.95603904    0.3066422    2252.1415    0.8924839    13.107863    13.107863    13.107863 
  510000   -1.6598515   0.45912115   -1.2007303   0.99370401   0.30623312     2252.632   0.89228957    13.108814    13.108814    13.108814 
  511000   -1.6783871   0.43974476   -1.2386424   0.94482535    0.2933091    2245.8545   0.89498229    13.095654    13.095654    13.095654 
  512000   -1.6710315   0.46375511   -1.2072764   0.97125623   0.30932396    2250.6016   0.89309453    13.104875    13.104875    13.104875 
  513000   -1.6708619   0.44846714   -1.2223948   0.98012184   0.29912691    2248.6923   0.89385285    13.101168    13.101168    13.101168 
  514000   -1.6661535   0.45145159    -1.214702    1.0217898   0.30111754    2243.5988   0.89588211    13.091269    13.091269    13.091269 
  515000   -1.6767614    0.4434795   -1.2332819    1.0006079   0.29580016    2237.3537   0.89838275    13.079111    13.079111    13.079111 
  516000   -1.6627576   0.43623011   -1.2265275    1.0523724   0.29096483     2239.997   0.89732265    13.084259    13.084259    13.084259 
  517000   -1.6614834   0.44329743   -1.2181859   0.95908588   0.29567873    2258.5808   0.88993938    13.120344    13.120344    13.120344 
  518000   -1.6566803     0.447369   -1.2093113   0.98501329   0.29839445    2259.7851   0.88946509    13.122675    13.122675    13.122675 
  519000   -1.6578219   0.44677252   -1.2110494    1.0387904    0.2979966    2248.1305    0.8940762    13.100077    13.100077    13.100077 
  520000   -1.6721569   0.45103213   -1.2211247    1.0441304   0.30083776    2238.6386   0.89786713    13.081614    13.081614    13.081614 
  521000   -1.6584356   0.46169964   -1.1967359    1.0451514   0.30795297    2247.4923   0.89433011    13.098837    13.098837    13.098837 
  522000   -1.6713923   0.44143298   -1.2299593   0.94909447   0.29443514    2251.4541   0.89275636    13.106529    13.106529    13.106529 
  523000   -1.6671971   0.45381593   -1.2133812    1.0475388   0.30269455    2239.4547   0.89753991    13.083203    13.083203    13.083203 
  524000   -1.6623252   0.44470475   -1.2176204    1.0102613   0.29661741    2248.0193   0.89412043    13.099861    13.099861    13.099861 
  525000   -1.6750835    0.4405655    -1.234518     1.045807   0.29385653    2229.4653   0.90156146    13.063721    13.063721    13.063721 
  526000   -1.6663285   0.45677892   -1.2095496    1.0274237   0.30467086    2245.7503   0.89502381    13.095452    13.095452    13.095452 
  527000   -1.6602609   0.44622513   -1.2140358   0.98285326    0.2976315    2254.2244   0.89165924    13.111903    13.111903    13.111903 
[...]
 1819000   -1.6752107   0.44997843   -1.2252323    1.0527569   0.30013494    2234.2075    507.46206 
 1820000   -1.6645581   0.44910501   -1.2154531    1.0869368   0.29955237    2234.2075    507.22147 
 1821000   -1.6734057   0.44757045   -1.2258352     1.043448   0.29852882    2234.2075    508.06111 
 1822000   -1.6882067   0.46334726   -1.2248595   0.97676582   0.30905193    2234.2075    508.82528 
 1823000   -1.6809814   0.44231601   -1.2386654    1.0035681   0.29502412    2234.2075    508.78768 
 1824000   -1.6732772    0.4431518   -1.2301254    1.0476376   0.29558159    2234.2075    509.29592 
 1825000   -1.6683109   0.45516358   -1.2131473    1.0731106   0.30359343    2234.2075    509.88951 
 1826000   -1.6787545   0.44798726   -1.2307673    1.0143505   0.29880683    2234.2075    509.93416 
 1827000   -1.6779687   0.45973023   -1.2182385    1.0207301   0.30663938    2234.2075    510.32906 
 1828000    -1.676515   0.45004313   -1.2264719    1.0479848   0.30017809    2234.2075    511.29197 
 1829000   -1.6703308   0.46289119   -1.2074396    1.0870776   0.30874773    2234.2075    512.11271 
 1830000   -1.6696547   0.44772762   -1.2219271    1.0886459   0.29863366    2234.2075    512.71251 
 1831000   -1.6696927   0.44076603   -1.2289267    1.0709424   0.29399028    2234.2075    513.91457 
 1832000   -1.6874896   0.43624364    -1.251246    0.9779016   0.29097386    2234.2075    515.30049 
 1833000   -1.6821138   0.47116776    -1.210946     1.012985   0.31426819    2234.2075    514.87619 
 1834000   -1.6720553   0.44499517   -1.2270601    1.0593024   0.29681111    2234.2075    515.21421 
 1835000   -1.6703127   0.46167768   -1.2086351    1.0655156   0.30793833    2234.2075    516.26352 
 1836000   -1.6796875   0.45329503   -1.2263925    1.0199177   0.30234711    2234.2075    516.91284 
 1837000    -1.664075   0.45857843   -1.2054966    1.1069882   0.30587113    2234.2075    517.17338 
 1838000   -1.6810457   0.44470129   -1.2363444    1.0239074   0.29661509    2234.2075    518.13693 
 1839000     -1.68036   0.44125586   -1.2391042    1.0128263     0.294317    2234.2075     519.0827 
 1840000   -1.6692533   0.45484391   -1.2144094    1.0701442   0.30338021    2234.2075    519.56507 
 1841000   -1.6603726   0.42948848   -1.2308841    1.1163915   0.28646818    2234.2075    519.29854 
 1842000    -1.674033    0.4524061   -1.2216269    1.0360054   0.30175419    2234.2075    520.02265 
 1843000   -1.6722979   0.44445775   -1.2278402    1.0633804   0.29645266    2234.2075     520.4139 
 1844000   -1.6690776   0.46564827   -1.2034293    1.0727362    0.3105867    2234.2075    520.90891 
 1845000   -1.6839024   0.46436975   -1.2195326    1.0101016   0.30973393    2234.2075    521.38722 
 1846000   -1.6763729   0.46220007   -1.2141728    1.0399154   0.30828675    2234.2075    521.97019 
 1847000   -1.6805748   0.45636866   -1.2242062    1.0221843   0.30439721    2234.2075    523.44449 
 1848000   -1.6863613   0.44303575   -1.2433255   0.96967039   0.29550418    2234.2075    524.79084 
 1849000   -1.6701863   0.45192847   -1.2182579    1.0682518   0.30143561    2234.2075    525.42184 
 1850000   -1.6762107   0.46312926   -1.2130815    1.0497547   0.30890653    2234.2075    525.46473 
 1851000   -1.6727504   0.43568127   -1.2370691    1.0442589   0.29059876    2234.2075    525.99658 
 1852000   -1.6680782   0.46259721    -1.205481    1.0914726   0.30855165    2234.2075     526.0621 
 1853000   -1.6734431   0.44926094   -1.2241821    1.0455098   0.29965637    2234.2075    526.85987 
 1854000   -1.6580118   0.45030415   -1.2077076    1.1269043    0.3003522    2234.2075    527.19836 
 1855000   -1.6746492    0.4393247   -1.2353245    1.0310984   0.29302892    2234.2075    527.37667 
 1856000   -1.6782082   0.45657211   -1.2216361    1.0467025   0.30453292    2234.2075    527.47339 
 1857000   -1.6752305   0.44863392   -1.2265966    1.0428845   0.29923816    2234.2075    527.70638 
 1858000   -1.6770441   0.45129656   -1.2257475    1.0442411   0.30101413    2234.2075    529.01334 
 1859000   -1.6826162   0.45041799   -1.2321982     1.024264   0.30042813    2234.2075    530.03931 
 1860000   -1.6774529    0.4478558   -1.2295971    1.0373236   0.29871915    2234.2075     529.5994 
 1861000     -1.67769   0.44487355   -1.2328164    1.0164453      0.29673    2234.2075    531.56072 
 1862000   -1.6850147   0.44790972   -1.2371049    1.0012649   0.29875511    2234.2075    531.66375 
 1863000    -1.679427   0.46220128   -1.2172257    1.0227968   0.30828757    2234.2075    532.93747 
 1864000   -1.6610648   0.44163061   -1.2194342    1.1149536   0.29456696    2234.2075    532.68428 
 1865000   -1.6708094    0.4418224    -1.228987    1.0537239   0.29469488    2234.2075    533.21805 
 1866000    -1.683241   0.44239311   -1.2408479   0.98873796   0.29507554    2234.2075    534.51683 
 1867000   -1.6751057   0.44342467    -1.231681    1.0373246    0.2957636    2234.2075    535.15463 
 1868000    -1.686161   0.44770433   -1.2384567   0.97408838   0.29861812    2234.2075    535.99348 
 1869000   -1.6750803   0.44628497   -1.2287953    1.0513913   0.29767141    2234.2075     536.6871 
 1870000    -1.675096   0.43247127   -1.2426247    1.0183483   0.28845769    2234.2075    537.01463 
 1871000   -1.6700554   0.45854814   -1.2115073     1.049677   0.30585092    2234.2075    537.23567 
 1872000   -1.6646021   0.44106984   -1.2235323    1.0687486   0.29419293    2234.2075    537.71431 
 1873000   -1.6727253    0.4490085   -1.2237168    1.0457247     0.299488    2234.2075    538.12588 
 1874000   -1.6706882   0.47134894   -1.1993392    1.0742111   0.31438904    2234.2075    539.39713 
 1875000   -1.6770046   0.44664328   -1.2303613    1.0356257    0.2979104    2234.2075     539.9675 
 1876000   -1.6892399   0.45034729   -1.2388926   0.97475611   0.30038097    2234.2075    539.93059 
 1877000   -1.6694449   0.45162786    -1.217817    1.0706891   0.30123511    2234.2075    541.07281 
 1878000   -1.6784183   0.45733005   -1.2210883     1.021386   0.30503846    2234.2075    540.81482 
 1879000   -1.6843501   0.44775447   -1.2365956    1.0100815   0.29865156    2234.2075    541.51739 
 1880000   -1.6705437   0.45655852   -1.2139851    1.0764602   0.30452385    2234.2075    542.02247 
 1881000   -1.6723657   0.44874968    -1.223616    1.0534672   0.29931537    2234.2075    542.29607 
 1882000   -1.6766208   0.45359177    -1.223029    1.0506464   0.30254503    2234.2075    543.00953 
 1883000   -1.6804678   0.45854493   -1.2219229    1.0239181   0.30584878    2234.2075    543.30143 
 1884000   -1.6724048   0.44931031   -1.2230945    1.0419235   0.29968931    2234.2075    543.38696 
 1885000   -1.6768274   0.44059413   -1.2362333     1.024137   0.29387563    2234.2075    544.19634 
 1886000   -1.6706537   0.43299458   -1.2376592    1.0584368   0.28880674    2234.2075    545.49477 
 1887000   -1.6565052   0.43871461   -1.2177906    1.1398612   0.29262199    2234.2075    545.90064 
 1888000   -1.6444579   0.46139469   -1.1830632    1.2138927   0.30774957    2234.2075    546.75855 
 1889000   -1.6865889    0.4457306   -1.2408583   0.98725762   0.29730164    2234.2075    547.43156 
 1890000   -1.6621661    0.4464321    -1.215734    1.1194477   0.29776955    2234.2075    548.63042 
 1891000   -1.6662341   0.45057355   -1.2156605    1.0788661   0.30053188    2234.2075    549.68409 
 1892000   -1.6647375   0.45041082   -1.2143267    1.0724333   0.30042334    2234.2075    550.46826 
 1893000   -1.6722718   0.44308925   -1.2291826    1.0300725   0.29553987    2234.2075    550.68128 
 1894000   -1.6758702   0.44517593   -1.2306942    1.0309277   0.29693168    2234.2075    551.09983 
 1895000   -1.6761964   0.46279401   -1.2134024    1.0509843   0.30868292    2234.2075    552.19539 
 1896000   -1.6733344   0.44611336    -1.227221    1.0524363   0.29755695    2234.2075    552.78671 
 1897000   -1.6728614   0.45223081   -1.2206306    1.0583886   0.30163727    2234.2075    553.65365 
 1898000   -1.6673219   0.46466201   -1.2026599    1.0891843   0.30992886    2234.2075    554.22242 
 1899000   -1.6720259   0.45311509   -1.2189108    1.0468387   0.30222709    2234.2075    555.96633 
 1900000   -1.6734681   0.44473437   -1.2287337    1.0463507   0.29663716    2234.2075    556.25726 
 1901000   -1.6781618   0.44355929   -1.2346025    1.0255272   0.29585339    2234.2075    556.51678 
 1902000    -1.674133    0.4492446   -1.2248884    1.0480497   0.29964548    2234.2075    556.20264 
 1903000   -1.6865933   0.45317393   -1.2334193   0.96771952   0.30226633    2234.2075    556.27739 
 1904000   -1.6744985   0.45331574   -1.2211828    1.0481229   0.30236092    2234.2075    556.44844 
 1905000   -1.6729415   0.44901936   -1.2239222      1.05329   0.29949524    2234.2075    557.49872 
 1906000    -1.668727   0.46227391   -1.2064531    1.0988475   0.30833601    2234.2075    557.87744 
 1907000   -1.6722919   0.44904299   -1.2232489    1.0552072     0.299511    2234.2075    558.36539 
 1908000   -1.6777029    0.4435944   -1.2341085    1.0226196    0.2958768    2234.2075    558.73269 
 1909000   -1.6764985   0.44250229   -1.2339962    1.0260327   0.29514837    2234.2075     560.2141 
 1910000   -1.6770741   0.45257806    -1.224496    1.0254848   0.30186889    2234.2075     560.4068 
 1911000   -1.6753421   0.45925963   -1.2160825    1.0442228   0.30632548    2234.2075    561.02996 
 1912000   -1.6689904   0.44230391   -1.2266865     1.075874   0.29501605    2234.2075    561.80332 
 1913000   -1.6802068   0.44198084   -1.2382259    1.0262875   0.29480056    2234.2075     562.3882 
 1914000   -1.6824123   0.46766203   -1.2147503    1.0216689   0.31192987    2234.2075    562.33208 
 1915000   -1.6690893    0.4638839   -1.2052054    1.0901396   0.30940987    2234.2075    562.37783 
 1916000   -1.6786833   0.46613252   -1.2125507     1.040179   0.31090969    2234.2075    563.03739 
 1917000   -1.6704077   0.44760872    -1.222799    1.0517376   0.29855435    2234.2075    563.47162 
 1918000   -1.6755213   0.42996167   -1.2455596    1.0125574   0.28678379    2234.2075    563.43913 
 1919000    -1.665126   0.43751259   -1.2276134    1.0857439   0.29182025    2234.2075    563.22426 
 1920000   -1.6635916   0.44565658    -1.217935    1.1101517   0.29725227    2234.2075    564.96667 
 1921000   -1.6884669   0.45321651   -1.2352504    0.9859907   0.30229474    2234.2075    565.30037 
 1922000   -1.6740621   0.45094928   -1.2231128    1.0343325    0.3007825    2234.2075    566.01894 
 1923000   -1.6809173   0.46935441   -1.2115629    1.0254316   0.31305869    2234.2075     567.2563 
 1924000    -1.663117   0.45574931   -1.2073677    1.1130419   0.30398411    2234.2075    567.87326 
 1925000   -1.6713218   0.45554683    -1.215775    1.0710782   0.30384905    2234.2075    568.65918 
 1926000    -1.677856   0.44081088   -1.2370451    1.0241345    0.2940202    2234.2075    568.96864 
 1927000     -1.67196   0.45295249   -1.2190076    1.0647826   0.30211863    2234.2075    570.15488 
 1928000   -1.6829314   0.45727089   -1.2256606    1.0062144     0.304999    2234.2075    570.42161 
 1929000   -1.6762867   0.45508383   -1.2212029    1.0330901   0.30354023    2234.2075    569.63129 
 1930000   -1.6676688   0.45594403   -1.2117248    1.0812449   0.30411399    2234.2075    569.61817 
 1931000   -1.6806386   0.44572409   -1.2349146    1.0337173    0.2972973    2234.2075    570.80106 
 1932000   -1.6869426   0.44031041   -1.2466322    0.9874799   0.29368638    2234.2075    571.32201 
 1933000   -1.6795932   0.44828735   -1.2313059   0.98930297   0.29900699    2234.2075    571.98866 
 1934000   -1.6780108   0.43957162   -1.2384392    1.0355129   0.29319361    2234.2075    571.63406 
 1935000   -1.6684412   0.44659457   -1.2218466    1.0801913   0.29787791    2234.2075      571.645 
 1936000   -1.6643959   0.45842894    -1.205967    1.1061478   0.30577142    2234.2075    571.88472 
 1937000    -1.673457   0.44151437   -1.2319426    1.0522788   0.29448942    2234.2075    572.65652 
 1938000   -1.6775732   0.45517508   -1.2223982    1.0252664    0.3036011    2234.2075    573.21702 
 1939000   -1.6788018   0.46009684    -1.218705    1.0325377    0.3068839    2234.2075    573.97095 
 1940000   -1.6789242   0.44149247   -1.2374317    1.0172023   0.29447482    2234.2075    575.65821 
 1941000   -1.6790687   0.43975267    -1.239316    1.0098434   0.29331437    2234.2075    576.94436 
 1942000   -1.6632686   0.45053631   -1.2127323    1.0953891   0.30050705    2234.2075     577.6354 
 1943000   -1.6820127   0.45220978   -1.2298029   0.99951577   0.30162325    2234.2075    577.70376 
 1944000   -1.6707403   0.44981602   -1.2209243     1.054961   0.30002662    2234.2075    578.09769 
 1945000   -1.6725479   0.45061702   -1.2219308    1.0616941   0.30056088    2234.2075    578.17964 
 1946000   -1.6717986   0.44769455   -1.2241041    1.0489641    0.2986116    2234.2075     578.1094 
 1947000   -1.6665394   0.43968389   -1.2268555    1.0833924    0.2932685    2234.2075    578.46941 
 1948000   -1.6610266   0.45499284   -1.2060337    1.1005389   0.30347954    2234.2075    578.17467 
 1949000   -1.6779719   0.45811687   -1.2198551    1.0298869   0.30556327    2234.2075    578.65183 
 1950000   -1.6675448   0.44385339   -1.2236914    1.0827362   0.29604955    2234.2075    580.01683 
 1951000   -1.6760581   0.44360434   -1.2324538    1.0275538   0.29588343    2234.2075    580.70682 
 1952000   -1.6806483   0.44652125   -1.2341271    1.0086738   0.29782901    2234.2075    580.99358 
 1953000   -1.6769634   0.44425947   -1.2327039    1.0355054    0.2963204    2234.2075    581.82294 
 1954000   -1.6831809   0.44520994    -1.237971   0.99859892   0.29695437    2234.2075    582.64962 
 1955000   -1.6809172   0.44355401   -1.2373632    1.0252181   0.29584987    2234.2075    582.47634 
 1956000   -1.6753918    0.4509855   -1.2244062    1.0502464   0.30080666    2234.2075    582.98882 
 1957000   -1.6819326   0.46284598   -1.2190866    1.0254467   0.30871758    2234.2075    583.16976 
 1958000   -1.6742749   0.44975577   -1.2245191    1.0458606   0.29998643    2234.2075    584.25314 
 1959000    -1.685709   0.45273814   -1.2329708    0.9944187   0.30197566    2234.2075    583.88339 
 1960000   -1.6673908   0.45695577    -1.210435    1.0876755   0.30478882    2234.2075    585.06685 
 1961000   -1.6782872   0.45539882   -1.2228884    1.0265837   0.30375033    2234.2075    585.94182 
 1962000   -1.6762514   0.45246511   -1.2237863    1.0470167   0.30179355    2234.2075    587.05746 
 1963000   -1.6629659    0.4402414   -1.2227245    1.0935579   0.29364036    2234.2075    588.07041 
 1964000   -1.6827239   0.45970588    -1.223018   0.98697211   0.30662313    2234.2075     588.1049 
 1965000   -1.6815955   0.43833214   -1.2432634    1.0136611   0.29236688    2234.2075    588.49277 
 1966000     -1.67066   0.44816113   -1.2224989    1.0394544    0.2989228    2234.2075     589.3106 
 1967000   -1.6749662   0.44621571   -1.2287505    1.0397523   0.29762521    2234.2075    590.50717 
 1968000    -1.675461   0.45274993    -1.222711    1.0624443   0.30198353    2234.2075    591.66262 
 1969000   -1.6869258   0.45073933   -1.2361865   0.97924395   0.30064246    2234.2075    592.49235 
 1970000    -1.681683    0.4698145   -1.2118685    1.0308941   0.31336557    2234.2075    593.35619 
 1971000   -1.6782865   0.44996845    -1.228318    1.0279811   0.30012828    2234.2075    593.68325 
 1972000    -1.664564   0.46670797    -1.197856    1.1181195   0.31129352    2234.2075    594.84909 
 1973000   -1.6846011   0.44759897   -1.2370021   0.97781514   0.29854784    2234.2075      595.428 
 1974000   -1.6655928   0.45904457   -1.2065482    1.1005525   0.30618204    2234.2075    596.49916 
 1975000   -1.6837257   0.44613989   -1.2375858   0.99762443   0.29757464    2234.2075    596.82346 
 1976000   -1.6700975   0.45656343    -1.213534    1.0831005   0.30452713    2234.2075    598.30714 
 1977000   -1.6854737    0.4451709   -1.2403028   0.96989019   0.29692833    2234.2075    599.23567 
 1978000   -1.6838119   0.44679762   -1.2370143    1.0182077   0.29801335    2234.2075    600.51657 
 1979000   -1.6714051   0.44967011    -1.221735    1.0807118   0.29992929    2234.2075    601.84284 
 1980000   -1.6789917   0.44480231   -1.2341894    1.0076688   0.29668248    2234.2075    602.61408 
 1981000   -1.6587896   0.44366784   -1.2151218    1.1251805   0.29592579    2234.2075    602.75191 
 1982000   -1.6672628   0.44646536   -1.2207974    1.0971338   0.29779173    2234.2075    603.01491 
 1983000   -1.6854231   0.45555778   -1.2298653   0.99536406   0.30385636    2234.2075      604.325 
 1984000   -1.6772612   0.44947701   -1.2277842    1.0154689    0.2998005    2234.2075    605.84322 
 1985000   -1.6696977   0.44788899   -1.2218087    1.0855848   0.29874129    2234.2075    606.61843 
 1986000   -1.6718663   0.45140679   -1.2204595    1.0678583   0.30108766    2234.2075    607.62443 
 1987000    -1.678808   0.45155543   -1.2272526    1.0050747   0.30118679    2234.2075    607.62877 
 1988000   -1.6806365   0.44898217   -1.2316543    1.0303371   0.29947044    2234.2075     608.6896 
 1989000   -1.6759699    0.4266615   -1.2493084    1.0265937   0.28458258    2234.2075    608.23881 
 1990000   -1.6704393   0.44562367   -1.2248156    1.0617009   0.29723032    2234.2075    608.48978 
 1991000   -1.6586856   0.43557899   -1.2231066    1.0965665   0.29053053    2234.2075    609.46518 
 1992000   -1.6828445   0.44624716   -1.2365974    1.0019676   0.29764619    2234.2075    609.87282 
 1993000   -1.6759547   0.46839507   -1.2075597    1.0553322   0.31241881    2234.2075    610.11866 
 1994000   -1.6873907   0.44498309   -1.2424076   0.98290266   0.29680306    2234.2075    610.53296 
 1995000   -1.6831628   0.45665336   -1.2265094    1.0143733   0.30458711    2234.2075    610.88284 
 1996000   -1.6716359   0.46314285    -1.208493    1.0693787   0.30891559    2234.2075    610.89386 
 1997000   -1.6663749   0.45026029   -1.2161146    1.1030036   0.30032294    2234.2075    611.80443 
 1998000   -1.6818218   0.45158162   -1.2302402    1.0087592   0.30120427    2234.2075    612.79003 
 1999000   -1.6906421   0.44778265   -1.2428594   0.96870284   0.29867036    2234.2075    613.42464 
 2000000   -1.6720472   0.45578004   -1.2162672    1.0634504    0.3040046    2234.2075    614.29011 
Loop time of 4511.69 on 1 procs for 1000000 steps with 2010 atoms

Performance: 95751.278 tau/day, 221.646 timesteps/s
93.1% CPU use with 1 MPI tasks x 1 OpenMP threads

MPI task timing breakdown:
Section |  min time  |  avg time  |  max time  |%varavg| %total
---------------------------------------------------------------
Pair    | 3771.2     | 3771.2     | 3771.2     |   0.0 | 83.59
Bond    | 1.789      | 1.789      | 1.789      |   0.0 |  0.04
Neigh   | 489.13     | 489.13     | 489.13     |   0.0 | 10.84
Comm    | 63.952     | 63.952     | 63.952     |   0.0 |  1.42
Output  | 103.07     | 103.07     | 103.07     |   0.0 |  2.28
Modify  | 62.229     | 62.229     | 62.229     |   0.0 |  1.38
Other   |            | 20.31      |            |       |  0.45

Nlocal:    2010 ave 2010 max 2010 min
Histogram: 1 0 0 0 0 0 0 0 0 0
Nghost:    5966 ave 5966 max 5966 min
Histogram: 1 0 0 0 0 0 0 0 0 0
Neighs:    205908 ave 205908 max 205908 min
Histogram: 1 0 0 0 0 0 0 0 0 0

Total # of neighbors = 205908
Ave neighs/atom = 102.442
Ave special neighs/atom = 0.0238806
Neighbor list builds = 50000
Dangerous builds not checked

unfix        nvtid1
undump       dumpnvt1
unfix        rdfnvt1
uncompute    rdfnvt1
uncompute    msdnvt1

# There is no need to run two times for calculation of RDF of different pairs. It can be done together.
	
Total wall time: 2:31:56
